 Gaussian 16, Revision C.01,
 Gaussian 16:  ES64L-G16RevC.01  3-Jul-2019

 -----------------------------------------------------------
 # HF/Gen Freq Opt=(VeryTight,ZMatrix,CalcAll) Int=UltraFine
 -----------------------------------------------------------

 ------------------------
 H2O HARMONIC FREQUENCIES
 ------------------------
 Symbolic Z-matrix:
 Charge =  0 Multiplicity = 1

 SCF Done:  E(RHF) =  -76.0113043940     A.U. after   10 cycles
 SCF Done:  E(RHF) =  -76.0125677109     A.U. after    9 cycles
 SCF Done:  E(RHF) =  -76.0125772120     A.U. after    8 cycles
 SCF Done:  E(RHF) =  -76.0125772468     A.U. after    6 cycles
 Optimization completed.
    -- Stationary point found.
 Normal termination of Gaussian 16 at Mon Jul 13 11:23:25 2020.

 ---------------------------------------------------------------
 #N Geom=AllCheck Guess=TCheck SCRF=Check GenChk RHF/ChkBas Freq
 ---------------------------------------------------------------

 Structure from the checkpoint file:  "/jobfs/8424109.gadi-pbs/Gau-1579216.chk"
 ------------------------
 H2O HARMONIC FREQUENCIES
 ------------------------
 Charge =  0 Multiplicity = 1

                         Standard orientation:
 ---------------------------------------------------------------------
 Center     Atomic      Atomic             Coordinates (Angstroms)
 Number     Number       Type             X           Y           Z
 ---------------------------------------------------------------------
      1          8           0        0.000000    0.000000    0.113787
      2          1           0        0.000000    0.753844   -0.455147
      3          1           0       -0.000000   -0.753844   -0.455147
 ---------------------------------------------------------------------

 SCF Done:  E(RHF) =  -76.0125772468     A.U. after    1 cycles

 The electronic state is 1-A1.
 Alpha  occ. eigenvalues --  -20.55358  -1.36411  -0.73165  -0.58794  -0.51234
 Alpha virt. eigenvalues --    0.03310   0.04786   0.13060   0.16006   0.18050
 Alpha virt. eigenvalues --    0.18228   0.20673   0.21624   0.22550   0.25671
 Alpha virt. eigenvalues --    0.31688   0.34336   0.42179   0.45001   0.61080

 Mulliken charges:
               1
     1  O   -0.628394
     2  H    0.314197
     3  H    0.314197
 Sum of Mulliken charges =  -0.00000

 Dipole moment (field-independent basis, Debye):
    X=             -0.0000    Y=             -0.0000    Z=             -1.9410  Tot=              1.9410
 Quadrupole moment (field-independent basis, Debye-Ang):
   XX=             -7.6612   YY=             -4.2805   ZZ=             -6.3201
   XY=              0.0000   XZ=              0.0000   YZ=              0.0000

  Exact polarizability:       7.762       0.000       8.846       0.000      -0.000       8.177
 Approx polarizability:       6.208       0.000       7.567       0.000      -0.000       6.963

                      1                      2                      3
                     A1                     A1                     B2
 Frequencies --   1743.3195              4116.2214              4224.6304
 Red. masses --      1.0827                 1.0451                 1.0833
 Frc consts  --      1.9387                10.4332                11.3910
 IR Inten    --     95.0260                16.1428                97.7113
 Raman Activ --      0.6051                84.8604                24.1806

 - Thermochemistry -
 -------------------
 Temperature   298.150 Kelvin.  Pressure   1.00000 Atm.
 Atom     1 has atomic number  8 and mass  15.99491

 Molecular mass:    18.01056 amu.
 Principal axes and moments of inertia in atomic units:
                           1         2         3
     Eigenvalues --     2.06914   4.09050   6.15964
           X            0.00000   0.00000   1.00000
           Y            1.00000   0.00000   0.00000
           Z           -0.00000   1.00000  -0.00000
 This molecule is an asymmetric top.
 Rotational symmetry number  2.
 Rotational temperatures (Kelvin)     41.85981    21.17442    14.06152
 Rotational constants (GHZ):         872.21688   441.20330   292.99456
 Zero-point vibrational energy      60316.7 (Joules/Mol)
                                   14.41605 (Kcal/Mol)
 Vibrational temperatures:   2508.25  5922.32  6078.30
          (Kelvin)

 Zero-point correction=                           0.022973 (Hartree/Particle)
 Thermal correction to Energy=                    0.025808
 Thermal correction to Enthalpy=                  0.026752
 Thermal correction to Gibbs Free Energy=         0.005387
 Sum of electronic and zero-point Energies=            -75.989604
 Sum of electronic and thermal Energies=               -75.986769
 Sum of electronic and thermal Enthalpies=             -75.985825
 Sum of electronic and thermal Free Energies=          -76.007190

                     E (Thermal)             CV                S
                      KCal/Mol        Cal/Mol-Kelvin    Cal/Mol-Kelvin
 Total                   16.195              5.993             44.966
 Electronic               0.000              0.000              0.000
 Translational            0.889              2.981             34.608
 Rotational               0.889              2.981             10.354
 Vibrational             14.417              0.031              0.004

 Optimization completed.
    -- Stationary point found.
 Normal termination of Gaussian 16 at Mon Jul 13 11:23:27 2020.
