 Gaussian 16, Revision C.01,
 Gaussian 16:  ES64L-G16RevC.01  3-Jul-2019

 ---------------------------------------------------------------
 # HF/STO-3G Freq Opt=(VeryTight,Z-Matrix,CalcAll) Int=UltraFine
 ---------------------------------------------------------------

 ------------------------
 H2O HARMONIC FREQUENCIES
 ------------------------
 Symbolic Z-matrix:
 Charge =  0 Multiplicity = 1

 SCF Done:  E(RHF) =  -74.9644491296     A.U. after    7 cycles
 SCF Done:  E(RHF) =  -74.9658985169     A.U. after    6 cycles
 SCF Done:  E(RHF) =  -74.9659012154     A.U. after    6 cycles
 SCF Done:  E(RHF) =  -74.9659012171     A.U. after    5 cycles
 Optimization completed.
    -- Stationary point found.

 1\1\GINC-GADI-CPU-CLX-0392\POpt\RHF\STO-3G\H2O1\PK8622\13-Jul-2020\1\\
 # HF/STO-3G Freq Opt=(VeryTight,Z-Matrix,CalcAll) Int=UltraFine\\H2O H
 ARMONIC FREQUENCIES\\0,1\O\H,1,r2\H,1,r3,2,a3\\r2=0.98940931\r3=0.9894
 0931\a3=100.0268838\\Version=ES64L-G16RevC.01\State=1-A1\HF=-74.965901
 2\RMSD=2.982e-09\RMSF=1.042e-08\ZeroPoint=0.0243789\Thermal=0.0272118\
 ETot=-74.9386894\HTot=-74.9377453\GTot=-74.95926\Dipole=0.5152311,0.,0
 .4321243\Polar=3.7808559,0.,0.0400608,-1.4486016,0.,4.2931128\HyperPol
 ar=8.5066583,0.,-0.0584167,0.,-1.8778821,0.,-0.0489941,0.018513,0.,9.0

 Normal termination of Gaussian 16 at Mon Jul 13 10:14:05 2020.

 ---------------------------------------------------------------
 #N Geom=AllCheck Guess=TCheck SCRF=Check GenChk RHF/STO-3G Freq
 ---------------------------------------------------------------

 Structure from the checkpoint file:  "/jobfs/8418905.gadi-pbs/Gau-2360566.chk"
 ------------------------
 H2O HARMONIC FREQUENCIES
 ------------------------
 Charge =  0 Multiplicity = 1

                         Standard orientation:
 ---------------------------------------------------------------------
 Center     Atomic      Atomic             Coordinates (Angstroms)
 Number     Number       Type             X           Y           Z
 ---------------------------------------------------------------------
      1          8           0       -0.000000    0.000000    0.127160
      2          1           0       -0.000000    0.758081   -0.508642
      3          1           0       -0.000000   -0.758081   -0.508642
 ---------------------------------------------------------------------

 SCF Done:  E(RHF) =  -74.9659012171     A.U. after    1 cycles

 The electronic state is 1-A1.
 Alpha  occ. eigenvalues --  -20.25158  -1.25755  -0.59386  -0.45973  -0.39262
 Alpha virt. eigenvalues --    0.58179   0.69267

 Mulliken charges:
               1
     1  O   -0.330530
     2  H    0.165265
     3  H    0.165265
 Sum of Mulliken charges =  -0.00000

 Dipole moment (field-independent basis, Debye):
    X=             -0.0000    Y=             -0.0000    Z=             -1.7092  Tot=              1.7092
 Quadrupole moment (field-independent basis, Debye-Ang):
   XX=             -6.1257   YY=             -4.4856   ZZ=             -5.3332
   XY=              0.0000   XZ=              0.0000   YZ=              0.0000

  Exact polarizability:       0.040       0.000       5.508       0.000       0.000       2.566
 Approx polarizability:       0.020       0.000       3.938       0.000       0.000       2.607

                      1                      2                      3
                     A1                     A1                     B2
 Frequencies --   2170.0459              4140.0020              4391.0667
 Red. masses --      1.0785                 1.0491                 1.0774
 Frc consts  --      2.9923                10.5941                12.2392
 IR Inten    --      7.2377                44.2870                29.9720
 Raman Activ --      9.2669                47.8199                21.5550

 - Thermochemistry -
 -------------------
 Temperature   298.150 Kelvin.  Pressure   1.00000 Atm.
 Atom     1 has atomic number  8 and mass  15.99491

 Molecular mass:    18.01056 amu.
 Principal axes and moments of inertia in atomic units:
                           1         2         3
     Eigenvalues --     2.58411   4.13660   6.72072
           X            0.00000   0.00000   1.00000
           Y            1.00000  -0.00000  -0.00000
           Z            0.00000   1.00000  -0.00000
 This molecule is an asymmetric top.
 Rotational symmetry number  2.
 Rotational temperatures (Kelvin)     33.51785    20.93842    12.88760
 Rotational constants (GHZ):         698.39865   436.28591   268.53410
 Zero-point vibrational energy      64006.9 (Joules/Mol)
                                   15.29801 (Kcal/Mol)
 Vibrational temperatures:   3122.21  5956.54  6317.77
          (Kelvin)

 Zero-point correction=                           0.024379 (Hartree/Particle)
 Thermal correction to Energy=                    0.027212
 Thermal correction to Enthalpy=                  0.028156
 Thermal correction to Gibbs Free Energy=         0.006641
 Sum of electronic and zero-point Energies=            -74.941522
 Sum of electronic and thermal Energies=               -74.938689
 Sum of electronic and thermal Enthalpies=             -74.937745
 Sum of electronic and thermal Free Energies=          -74.959260

                     E (Thermal)             CV                S
                      KCal/Mol        Cal/Mol-Kelvin    Cal/Mol-Kelvin
 Total                   17.076              5.968             45.281
 Electronic               0.000              0.000              0.000
 Translational            0.889              2.981             34.608
 Rotational               0.889              2.981             10.673
 Vibrational             15.298              0.006              0.001

 Optimization completed.
    -- Stationary point found.

 1\1\GINC-GADI-CPU-CLX-0392\Freq\RHF\STO-3G\H2O1\PK8622\13-Jul-2020\1\\
 #N Geom=AllCheck Guess=TCheck SCRF=Check GenChk RHF/STO-3G Freq\\H2O H
 ARMONIC FREQUENCIES\\0,1\O\H,1,r2\H,1,r3,2,a3\\r2=0.98940931\r3=0.9894
 0931\a3=100.0268838\\Version=ES64L-G16RevC.01\State=1-A1\HF=-74.965901
 2\RMSD=0.000e+00\RMSF=1.042e-08\ZeroPoint=0.0243789\Thermal=0.0272118\
 ETot=-74.9386894\HTot=-74.9377453\GTot=-74.95926\Dipole=0.5152311,0.,0
 .4321243\DipoleDeriv=0.0361747,0.,0.056465,0.,-0.5596825,0.,0.056465,0
 .,0.0162074,0.168372,0.,-0.0934892,0.,0.2798412,0.,-0.0289118,0.,-0.19

 Normal termination of Gaussian 16 at Mon Jul 13 10:14:07 2020.
