 Gaussian 16, Revision C.01,
 Gaussian 16:  ES64L-G16RevC.01  3-Jul-2019

 -----------------------------------------------------------------
 # SOGGA11X/Gen Freq Opt=(VeryTight,ZMatrix,CalcAll) Int=UltraFine
 -----------------------------------------------------------------

 ------------------------
 H2O HARMONIC FREQUENCIES
 ------------------------
 Symbolic Z-matrix:
 Charge =  0 Multiplicity = 1

 SCF Done:  E(RSOGGA11X) =  -76.3901494426     A.U. after    9 cycles
 SCF Done:  E(RSOGGA11X) =  -76.3902819885     A.U. after    8 cycles
 SCF Done:  E(RSOGGA11X) =  -76.3902821068     A.U. after    6 cycles
 SCF Done:  E(RSOGGA11X) =  -76.3902821068     A.U. after    3 cycles
 Optimization completed.
    -- Stationary point found.
 Normal termination of Gaussian 16 at Mon Jul 13 11:32:29 2020.

 ---------------------------------------------------------------------
 #N Geom=AllCheck Guess=TCheck SCRF=Check GenChk RSOGGA11X/ChkBas Freq
 ---------------------------------------------------------------------

 Structure from the checkpoint file:  "/jobfs/8424225.gadi-pbs/Gau-1969839.chk"
 ------------------------
 H2O HARMONIC FREQUENCIES
 ------------------------
 Charge =  0 Multiplicity = 1

                         Standard orientation:
 ---------------------------------------------------------------------
 Center     Atomic      Atomic             Coordinates (Angstroms)
 Number     Number       Type             X           Y           Z
 ---------------------------------------------------------------------
      1          8           0       -0.000000    0.000000   -0.117840
      2          1           0        0.000000    0.758763    0.471360
      3          1           0        0.000000   -0.758763    0.471360
 ---------------------------------------------------------------------

 SCF Done:  E(RSOGGA11X) =  -76.3902821068     A.U. after    1 cycles

 The electronic state is 1-A1.
 Alpha  occ. eigenvalues --  -19.51376  -1.13053  -0.59818  -0.46088  -0.38088
 Alpha virt. eigenvalues --   -0.02017   0.01732   0.07503   0.09868   0.11289
 Alpha virt. eigenvalues --    0.11944   0.14825   0.15300   0.16161   0.18644
 Alpha virt. eigenvalues --    0.25184   0.25711   0.32228   0.32891   0.49495

 Mulliken charges:
               1
     1  O   -0.593091
     2  H    0.296546
     3  H    0.296546
 Sum of Mulliken charges =   0.00000

 Dipole moment (field-independent basis, Debye):
    X=              0.0000    Y=             -0.0000    Z=              1.8553  Tot=              1.8553
 Quadrupole moment (field-independent basis, Debye-Ang):
   XX=             -7.8859   YY=             -4.4929   ZZ=             -6.4451
   XY=             -0.0000   XZ=              0.0000   YZ=             -0.0000

  Exact polarizability:       9.092      -0.000       9.933       0.000       0.000       9.462
 Approx polarizability:       8.998      -0.000      10.992       0.000      -0.000      10.275

                      1                      2                      3
                     A1                     A1                     B2
 Frequencies --   1659.7364              3899.8748              4006.4451
 Red. masses --      1.0820                 1.0458                 1.0817
 Frc consts  --      1.7561                 9.3716                10.2300
 IR Inten    --     76.2389                 9.6095                78.2795

 - Thermochemistry -
 -------------------
 Temperature   298.150 Kelvin.  Pressure   1.00000 Atm.
 Atom     1 has atomic number  8 and mass  15.99491

 Molecular mass:    18.01056 amu.
 Principal axes and moments of inertia in atomic units:
                           1         2         3
     Eigenvalues --     2.21918   4.14405   6.36323
           X           -0.00000   0.00000   1.00000
           Y            1.00000   0.00000   0.00000
           Z           -0.00000   1.00000  -0.00000
 This molecule is an asymmetric top.
 Rotational symmetry number  2.
 Rotational temperatures (Kelvin)     39.02973    20.90079    13.61163
 Rotational constants (GHZ):         813.24752   435.50188   283.62041
 Zero-point vibrational energy      57217.7 (Joules/Mol)
                                   13.67536 (Kcal/Mol)
 Vibrational temperatures:   2387.99  5611.05  5764.38
          (Kelvin)

 Zero-point correction=                           0.021793 (Hartree/Particle)
 Thermal correction to Energy=                    0.024628
 Thermal correction to Enthalpy=                  0.025572
 Thermal correction to Gibbs Free Energy=         0.004152
 Sum of electronic and zero-point Energies=            -76.368489
 Sum of electronic and thermal Energies=               -76.365654
 Sum of electronic and thermal Enthalpies=             -76.364710
 Sum of electronic and thermal Free Energies=          -76.386130

                     E (Thermal)             CV                S
                      KCal/Mol        Cal/Mol-Kelvin    Cal/Mol-Kelvin
 Total                   15.454              6.004             45.083
 Electronic               0.000              0.000              0.000
 Translational            0.889              2.981             34.608
 Rotational               0.889              2.981             10.469
 Vibrational             13.677              0.042              0.006

 Optimization completed.
    -- Stationary point found.
 Normal termination of Gaussian 16 at Mon Jul 13 11:32:34 2020.
