 Gaussian 16, Revision C.01,
 Gaussian 16:  ES64L-G16RevC.01  3-Jul-2019

 ---------------------------------------------------------
 # SOGGA11X/Gen Freq Opt=(VeryTight,CalcAll) Int=UltraFine
 ---------------------------------------------------------

 ------------------------
 H2O HARMONIC FREQUENCIES
 ------------------------
 Symbolic Z-matrix:
 Charge =  0 Multiplicity = 1

 SCF Done:  E(RSOGGA11X) =  -76.4353413994     A.U. after   10 cycles
 SCF Done:  E(RSOGGA11X) =  -76.4357723584     A.U. after    8 cycles
 SCF Done:  E(RSOGGA11X) =  -76.4357735939     A.U. after    6 cycles
 SCF Done:  E(RSOGGA11X) =  -76.4357735950     A.U. after    3 cycles
 Optimization completed.
    -- Stationary point found.
 Normal termination of Gaussian 16 at Mon Jul 13 11:24:02 2020.

 ---------------------------------------------------------------------
 #N Geom=AllCheck Guess=TCheck SCRF=Check GenChk RSOGGA11X/ChkBas Freq
 ---------------------------------------------------------------------

 Structure from the checkpoint file:  "/jobfs/8424109.gadi-pbs/Gau-1579400.chk"
 ------------------------
 H2O HARMONIC FREQUENCIES
 ------------------------
 Charge =  0 Multiplicity = 1

                         Standard orientation:
 ---------------------------------------------------------------------
 Center     Atomic      Atomic             Coordinates (Angstroms)
 Number     Number       Type             X           Y           Z
 ---------------------------------------------------------------------
      1          8           0       -0.000000   -0.000000    0.116398
      2          1           0       -0.000000    0.755883   -0.465593
      3          1           0       -0.000000   -0.755883   -0.465593
 ---------------------------------------------------------------------

 SCF Done:  E(RSOGGA11X) =  -76.4357735950     A.U. after    1 cycles

 The electronic state is 1-A1.
 Alpha  occ. eigenvalues --  -19.50256  -1.12182  -0.59283  -0.45108  -0.37385
 Alpha virt. eigenvalues --    0.03504   0.08507   0.31487   0.32385   0.37797
 Alpha virt. eigenvalues --    0.38371   0.49111   0.71048   0.80134   0.83083
 Alpha virt. eigenvalues --    0.90657   1.08453   1.21717   1.26982   1.49178

 Mulliken charges:
               1
     1  O   -0.435359
     2  H    0.217679
     3  H    0.217679
 Sum of Mulliken charges =   0.00000

 Dipole moment (field-independent basis, Debye):
    X=             -0.0000    Y=              0.0000    Z=             -1.9810  Tot=              1.9810
 Quadrupole moment (field-independent basis, Debye-Ang):
   XX=             -7.5713   YY=             -4.3534   ZZ=             -6.3227
   XY=              0.0000   XZ=              0.0000   YZ=             -0.0000

  Exact polarizability:       6.099      -0.000       8.279       0.000       0.000       7.177
 Approx polarizability:       6.035       0.000       9.276       0.000       0.000       7.870

                      1                      2                      3
                     A1                     A1                     B2
 Frequencies --   1666.5318              3929.4385              4033.1154
 Red. masses --      1.0826                 1.0453                 1.0822
 Frc consts  --      1.7715                 9.5091                10.3711
 IR Inten    --     74.1032                 8.7626                62.2282

 - Thermochemistry -
 -------------------
 Temperature   298.150 Kelvin.  Pressure   1.00000 Atm.
 Atom     1 has atomic number  8 and mass  15.99491

 Molecular mass:    18.01056 amu.
 Principal axes and moments of inertia in atomic units:
                           1         2         3
     Eigenvalues --     2.16521   4.11265   6.27786
           X            0.00000   0.00000   1.00000
           Y            1.00000   0.00000  -0.00000
           Z           -0.00000   1.00000  -0.00000
 This molecule is an asymmetric top.
 Rotational symmetry number  2.
 Rotational temperatures (Kelvin)     40.00259    21.06034    13.79672
 Rotational constants (GHZ):         833.51871   438.82633   287.47702
 Zero-point vibrational energy      57594.7 (Joules/Mol)
                                   13.76547 (Kcal/Mol)
 Vibrational temperatures:   2397.77  5653.59  5802.75
          (Kelvin)

 Zero-point correction=                           0.021937 (Hartree/Particle)
 Thermal correction to Energy=                    0.024772
 Thermal correction to Enthalpy=                  0.025716
 Thermal correction to Gibbs Free Energy=         0.004317
 Sum of electronic and zero-point Energies=            -76.413837
 Sum of electronic and thermal Energies=               -76.411002
 Sum of electronic and thermal Enthalpies=             -76.410058
 Sum of electronic and thermal Free Energies=          -76.431456

                     E (Thermal)             CV                S
                      KCal/Mol        Cal/Mol-Kelvin    Cal/Mol-Kelvin
 Total                   15.544              6.003             45.037
 Electronic               0.000              0.000              0.000
 Translational            0.889              2.981             34.608
 Rotational               0.889              2.981             10.423
 Vibrational             13.767              0.041              0.006

 Optimization completed.
    -- Stationary point found.
 Normal termination of Gaussian 16 at Mon Jul 13 11:24:10 2020.
