 Gaussian 16, Revision C.01,
 Gaussian 16:  ES64L-G16RevC.01  3-Jul-2019

 ----------------------------------------------------------------------
 # wB97xD/Gen Freq=(anharmonic,ReadAnharm) Opt=(VeryTight,ZMatrix,CalcA
 ll) Int=UltraFine
 ----------------------------------------------------------------------

 -----------------------------------------------------------
 CFC-113 - Cl2FC-CClF2 ANHARMONIC FREQUENCIES - C1 CONFORMER
 -----------------------------------------------------------
 Symbolic Z-matrix:
 Charge =  0 Multiplicity = 1

 SCF Done:  E(RwB97XD) =  -1756.15485833     A.U. after   14 cycles
 SCF Done:  E(RwB97XD) =  -1756.15944975     A.U. after   11 cycles
 SCF Done:  E(RwB97XD) =  -1756.15946902     A.U. after    9 cycles
 SCF Done:  E(RwB97XD) =  -1756.15946905     A.U. after    6 cycles
 Optimization completed.
    -- Stationary point found.
 Normal termination of Gaussian 16 at Tue Sep  8 01:04:38 2020.

 -------------------------------------------------------------------
 #N Geom=AllCheck Guess=TCheck SCRF=Check GenChk RwB97XD/ChkBas Freq
 -------------------------------------------------------------------

 Structure from the checkpoint file:  "checkpoint.chk"
 -----------------------------------------------------------
 CFC-113 - Cl2FC-CClF2 ANHARMONIC FREQUENCIES - C1 CONFORMER
 -----------------------------------------------------------
 Charge =  0 Multiplicity = 1

                         Standard orientation:
 ---------------------------------------------------------------------
 Center     Atomic      Atomic             Coordinates (Angstroms)
 Number     Number       Type             X           Y           Z
 ---------------------------------------------------------------------
      1          6           0        0.144313    0.960290   -0.000000
      2          6           0       -0.609919   -0.408602    0.000000
      3         17           0        1.902101    0.790944    0.000000
      4          9           0       -0.235650    1.647335    1.079558
      5          9           0       -0.235650    1.647335   -1.079558
      6         17           0       -0.235650   -1.333933    1.460800
      7         17           0       -0.235650   -1.333933   -1.460800
      8          9           0       -1.920918   -0.117166   -0.000000
 ---------------------------------------------------------------------

 SCF Done:  E(RwB97XD) =  -1756.15946905     A.U. after    1 cycles
 SCF Done:  E(RwB97XD) =  -1756.15946901     A.U. after    7 cycles
 SCF Done:  E(RwB97XD) =  -1756.15946901     A.U. after    7 cycles
 SCF Done:  E(RwB97XD) =  -1756.15946886     A.U. after    8 cycles
 SCF Done:  E(RwB97XD) =  -1756.15946886     A.U. after    8 cycles
 SCF Done:  E(RwB97XD) =  -1756.15946883     A.U. after    7 cycles
 SCF Done:  E(RwB97XD) =  -1756.15946346     A.U. after    8 cycles
 SCF Done:  E(RwB97XD) =  -1756.15946346     A.U. after    8 cycles
 SCF Done:  E(RwB97XD) =  -1756.15946153     A.U. after    9 cycles
 SCF Done:  E(RwB97XD) =  -1756.15946149     A.U. after    9 cycles
 SCF Done:  E(RwB97XD) =  -1756.15946041     A.U. after    9 cycles
 SCF Done:  E(RwB97XD) =  -1756.15946047     A.U. after    9 cycles
 SCF Done:  E(RwB97XD) =  -1756.15945934     A.U. after    8 cycles
 SCF Done:  E(RwB97XD) =  -1756.15945934     A.U. after    8 cycles
 SCF Done:  E(RwB97XD) =  -1756.15945858     A.U. after    9 cycles
 SCF Done:  E(RwB97XD) =  -1756.15945859     A.U. after    9 cycles

 Alpha  occ. eigenvalues -- -101.72227-101.72227-101.71975 -24.87636 -24.87633
 Alpha  occ. eigenvalues --  -24.87615 -10.56461 -10.53815  -9.62238  -9.62236
 Alpha  occ. eigenvalues --   -9.62022  -7.37012  -7.37012  -7.36774  -7.35879
 Alpha  occ. eigenvalues --   -7.35878  -7.35866  -7.35865  -7.35671  -7.35658
 Alpha  occ. eigenvalues --   -1.44434  -1.40373  -1.37491  -1.05155  -0.99821
 Alpha  occ. eigenvalues --   -0.96986  -0.86520  -0.77519  -0.71787  -0.71464
 Alpha  occ. eigenvalues --   -0.68239  -0.64415  -0.64113  -0.59162  -0.57462
 Alpha  occ. eigenvalues --   -0.55393  -0.54360  -0.51888  -0.50161  -0.46942
 Alpha  occ. eigenvalues --   -0.45294  -0.44130  -0.43348  -0.42633  -0.42060
 Alpha virt. eigenvalues --    0.02707   0.05143   0.05234   0.05493   0.07193
 Alpha virt. eigenvalues --    0.08063   0.08376   0.10069   0.10170   0.10225
 Alpha virt. eigenvalues --    0.11400   0.11931   0.14149   0.14927   0.15274

 Mulliken charges:
               1
     1  C    1.913102
     2  C    0.837037
     3  Cl  -0.477118
     4  F   -0.574499
     5  F   -0.574499
     6  Cl  -0.297283
     7  Cl  -0.297283
     8  F   -0.529456
 Sum of Mulliken charges =  -0.00000

 Dipole moment (field-independent basis, Debye):
    X=              0.5406    Y=             -0.5156    Z=              0.0000  Tot=              0.7471
 Quadrupole moment (field-independent basis, Debye-Ang):
   XX=            -63.7261   YY=            -64.2213   ZZ=            -62.9675
   XY=              0.0388   XZ=             -0.0000   YZ=              0.0000

  Exact polarizability:      68.169       1.839      66.358       0.000      -0.000      72.783
 Approx polarizability:      79.678      -3.703      73.437       0.000      -0.000      84.761

                      1                      2                      3
                     A"                     A'                     A"
 Frequencies --     71.2029               166.7398               178.1240
 Red. masses --     25.6651                30.4794                25.7392
 Frc consts  --      0.0767                 0.4993                 0.4812
 IR Inten    --      0.0077                 0.1847                 0.4507

                      4                      5                      6
                     A'                     A'                     A"
 Frequencies --    254.1223               306.7351               312.4832
 Red. masses --     26.3915                19.8496                20.8160
 Frc consts  --      1.0042                 1.1003                 1.1976
 IR Inten    --      0.0677                 1.2544                 0.6226

                      7                      8                      9
                     A'                     A"                     A'
 Frequencies --    377.3236               384.4489               442.6124
 Red. masses --     22.4930                22.2690                26.1469
 Frc consts  --      1.8868                 1.9392                 3.0180
 IR Inten    --      0.1767                 0.3375                 0.1829

                     10                     11                     12
                     A"                     A'                     A'
 Frequencies --    461.0729               512.8391               637.1359
 Red. masses --     20.1222                20.5929                17.6049
 Frc consts  --      2.5204                 3.1910                 4.2106
 IR Inten    --      2.0015                 3.6394                16.3497

                     13                     14                     15
                     A'                     A"                     A'
 Frequencies --    892.3996               909.2212              1055.9774
 Red. masses --     13.3211                12.7791                13.0140
 Frc consts  --      6.2504                 6.2243                 8.5501
 IR Inten    --    141.5647               229.2495               277.4877

                     16                     17                     18
                     A'                     A"                     A'
 Frequencies --   1128.5152              1198.3968              1244.4634
 Red. masses --     13.3862                13.2716                12.8019
 Frc consts  --     10.0444                11.2299                11.6812
 IR Inten    --      9.1238               139.5726               162.6732

 - Thermochemistry -
 -------------------
 Temperature   298.150 Kelvin.  Pressure   1.00000 Atm.
 Atom     1 has atomic number  6 and mass  12.00000

 Molecular mass:   185.90177 amu.
 Principal axes and moments of inertia in atomic units:
                           1         2         3
     Eigenvalues --  1265.618961678.672891795.23984
           X            0.55957   0.00000   0.82878
           Y            0.82878   0.00000  -0.55957
           Z           -0.00000   1.00000   0.00000
 This molecule is an asymmetric top.
 Rotational symmetry number  1.
 Warning -- assumption of classical behavior for rotation
           may cause significant error
 Rotational temperatures (Kelvin)      0.06844     0.05160     0.04825
 Rotational constants (GHZ):           1.42598     1.07510     1.00529
 Zero-point vibrational energy      63006.2 (Joules/Mol)
                                   15.05884 (Kcal/Mol)
 Warning -- explicit consideration of  11 degrees of freedom as
           vibrations may cause significant error
 Vibrational temperatures:    102.45   239.90   256.28   365.63   441.32
          (Kelvin)            449.59   542.88   553.14   636.82   663.38
                              737.86   916.70  1283.96  1308.17  1519.32
                             1623.68  1724.23  1790.51

 Zero-point correction=                           0.023998 (Hartree/Particle)
 Thermal correction to Energy=                    0.031857
 Thermal correction to Enthalpy=                  0.032801
 Thermal correction to Gibbs Free Energy=        -0.009873
 Sum of electronic and zero-point Energies=          -1756.135471
 Sum of electronic and thermal Energies=             -1756.127612
 Sum of electronic and thermal Enthalpies=           -1756.126668
 Sum of electronic and thermal Free Energies=        -1756.169342

                     E (Thermal)             CV                S
                      KCal/Mol        Cal/Mol-Kelvin    Cal/Mol-Kelvin
 Total                   19.991             26.618             89.815
 Electronic               0.000              0.000              0.000
 Translational            0.889              2.981             41.566
 Rotational               0.889              2.981             29.724
 Vibrational             18.213             20.656             18.525
 Vibration     1          0.598              1.968              4.120
 Vibration     2          0.624              1.883              2.472
 Vibration     3          0.629              1.869              2.348
 Vibration     4          0.665              1.756              1.702
 Vibration     5          0.697              1.661              1.380
 Vibration     6          0.701              1.650              1.349
 Vibration     7          0.748              1.518              1.050
 Vibration     8          0.753              1.503              1.022
 Vibration     9          0.802              1.377              0.818
 Vibration    10          0.819              1.336              0.763
 Vibration    11          0.868              1.222              0.627

 ## DEPERTURBED TRANSITIONS MOMENTS ##

 Electric dipole : Fundamental Bands
 ------------------------------------------------------------------------

 ## AFTER VARIATIONAL CORRECTION

 Electric dipole : Fundamental Bands
 ------------------------------------------------------------------------

 Optimization completed.
    -- Stationary point found.
 Normal termination of Gaussian 16 at Tue Sep  8 14:47:25 2020.
