 Gaussian 16, Revision C.01,
 Gaussian 16:  ES64L-G16RevC.01  3-Jul-2019

 ----------------------------------------------------------------------
 # wB97xD/Gen Freq=(anharmonic,ReadAnharm) Opt=(VeryTight,ZMatrix,CalcA
 ll) Int=UltraFine
 ----------------------------------------------------------------------

 --------------------------------------------------------
 CFC-114 - ClF2C-CClF2 ANHARMONIC FREQUENCIES - CONFORMER
 --------------------------------------------------------
 Symbolic Z-matrix:
 Charge =  0 Multiplicity = 1

 SCF Done:  E(RwB97XD) =  -1395.76552338     A.U. after   13 cycles
 SCF Done:  E(RwB97XD) =  -1395.77039747     A.U. after   11 cycles
 SCF Done:  E(RwB97XD) =  -1395.77042375     A.U. after    9 cycles
 SCF Done:  E(RwB97XD) =  -1395.77042380     A.U. after    7 cycles
 Optimization completed.
    -- Stationary point found.
 Normal termination of Gaussian 16 at Tue Sep 15 13:56:21 2020.

 -------------------------------------------------------------------
 #N Geom=AllCheck Guess=TCheck SCRF=Check GenChk RwB97XD/ChkBas Freq
 -------------------------------------------------------------------

 Structure from the checkpoint file:  "checkpoint.chk"
 --------------------------------------------------------
 CFC-114 - ClF2C-CClF2 ANHARMONIC FREQUENCIES - CONFORMER
 --------------------------------------------------------
 Charge =  0 Multiplicity = 1

                         Standard orientation:
 ---------------------------------------------------------------------
 Center     Atomic      Atomic             Coordinates (Angstroms)
 Number     Number       Type             X           Y           Z
 ---------------------------------------------------------------------
      1          6           0       -0.737221    0.327686    0.250475
      2          6           0        0.737221    0.327687   -0.250475
      3         17           0       -1.648411   -1.065102   -0.339616
      4          9           0       -1.313996    1.450823   -0.186096
      5          9           0       -0.744572    0.342579    1.583292
      6          9           0        1.313996    1.450823    0.186096
      7          9           0        0.744573    0.342579   -1.583291
      8         17           0        1.648412   -1.065103    0.339615
 ---------------------------------------------------------------------

 SCF Done:  E(RwB97XD) =  -1395.77042380     A.U. after    1 cycles
 SCF Done:  E(RwB97XD) =  -1395.77042377     A.U. after    7 cycles
 SCF Done:  E(RwB97XD) =  -1395.77042376     A.U. after    7 cycles
 SCF Done:  E(RwB97XD) =  -1395.77042361     A.U. after    8 cycles
 SCF Done:  E(RwB97XD) =  -1395.77042361     A.U. after    8 cycles
 SCF Done:  E(RwB97XD) =  -1395.77042352     A.U. after    8 cycles
 SCF Done:  E(RwB97XD) =  -1395.77041620     A.U. after    9 cycles
 SCF Done:  E(RwB97XD) =  -1395.77041622     A.U. after    9 cycles
 SCF Done:  E(RwB97XD) =  -1395.77041498     A.U. after    9 cycles
 SCF Done:  E(RwB97XD) =  -1395.77041499     A.U. after    9 cycles
 SCF Done:  E(RwB97XD) =  -1395.77041402     A.U. after    8 cycles
 SCF Done:  E(RwB97XD) =  -1395.77041402     A.U. after    9 cycles
 SCF Done:  E(RwB97XD) =  -1395.77041384     A.U. after    9 cycles
 SCF Done:  E(RwB97XD) =  -1395.77041384     A.U. after    9 cycles
 SCF Done:  E(RwB97XD) =  -1395.77041228     A.U. after    9 cycles
 SCF Done:  E(RwB97XD) =  -1395.77041233     A.U. after    9 cycles

 Alpha  occ. eigenvalues -- -101.72174-101.72174 -24.87911 -24.87911 -24.87836
 Alpha  occ. eigenvalues --  -24.87834 -10.56444 -10.56429  -9.62219  -9.62218
 Alpha  occ. eigenvalues --   -7.36970  -7.36970  -7.35867  -7.35867  -7.35856
 Alpha  occ. eigenvalues --   -7.35856  -1.45391  -1.43244  -1.37940  -1.37499
 Alpha  occ. eigenvalues --   -1.02482  -0.99521  -0.87933  -0.79246  -0.73727
 Alpha  occ. eigenvalues --   -0.72403  -0.71184  -0.67630  -0.66545  -0.60713
 Alpha  occ. eigenvalues --   -0.58208  -0.57724  -0.56323  -0.55612  -0.55004
 Alpha  occ. eigenvalues --   -0.53186  -0.48270  -0.45335  -0.44901  -0.43775
 Alpha  occ. eigenvalues --   -0.43193
 Alpha virt. eigenvalues --    0.04326   0.05118   0.05777   0.06850   0.07838
 Alpha virt. eigenvalues --    0.08024   0.09963   0.10196   0.10581   0.11037
 Alpha virt. eigenvalues --    0.12250   0.14195   0.14805   0.15540   0.15710

 Mulliken charges:
               1
     1  C    1.699408
     2  C    1.699407
     3  Cl  -0.476446
     4  F   -0.645590
     5  F   -0.577371
     6  F   -0.645590
     7  F   -0.577371
     8  Cl  -0.476446
 Sum of Mulliken charges =  -0.00000

 Dipole moment (field-independent basis, Debye):
    X=             -0.0000    Y=             -0.6142    Z=             -0.0000  Tot=              0.6142
 Quadrupole moment (field-independent basis, Debye-Ang):
   XX=            -55.9374   YY=            -55.7648   ZZ=            -57.5304
   XY=              0.0000   XZ=              0.7318   YZ=              0.0000

  Exact polarizability:      60.259      -0.000      59.341       3.310      -0.000      51.160
 Approx polarizability:      61.208      -0.000      69.688       4.259      -0.000      60.880

                      1                      2                      3
                      A                      A                      A
 Frequencies --     68.2851               166.9891               201.9070
 Red. masses --     22.8609                28.4611                20.4675
 Frc consts  --      0.0628                 0.4676                 0.4916
 IR Inten    --      0.0712                 0.3953                 0.9107

                      4                      5                      6
                      A                      A                      A
 Frequencies --    310.3995               311.8754               329.5958
 Red. masses --     19.9803                20.6696                20.0795
 Frc consts  --      1.1342                 1.1845                 1.2852
 IR Inten    --      1.3638                 0.4636                 0.1423

                      7                      8                      9
                      A                      A                      A
 Frequencies --    403.2164               439.8945               453.0389
 Red. masses --     18.9406                22.7406                25.5912
 Frc consts  --      1.8144                 2.5927                 3.0946
 IR Inten    --      1.0848                 0.1976                 0.3567

                     10                     11                     12
                      A                      A                      A
 Frequencies --    501.4697               623.0619               683.6999
 Red. masses --     19.1049                17.0354                17.9560
 Frc consts  --      2.8306                 3.8964                 4.9453
 IR Inten    --      2.0729                15.3453                12.1907

                     13                     14                     15
                      A                      A                      A
 Frequencies --    925.9119              1059.7968              1141.8819
 Red. masses --     13.1093                13.0359                13.4153
 Frc consts  --      6.6217                 8.6265                10.3061
 IR Inten    --    237.8790               339.9498                62.1543

                     16                     17                     18
                      A                      A                      A
 Frequencies --   1202.9368              1213.8649              1304.0782
 Red. masses --     13.1148                13.4828                12.6431
 Frc consts  --     11.1814                11.7050                12.6681
 IR Inten    --     69.1669               315.5401               102.6923

 - Thermochemistry -
 -------------------
 Temperature   298.150 Kelvin.  Pressure   1.00000 Atm.
 Atom     1 has atomic number  6 and mass  12.00000

 Molecular mass:   169.93132 amu.
 Principal axes and moments of inertia in atomic units:
                           1         2         3
     Eigenvalues --   973.036261413.754391628.75595
           X            0.99999  -0.00000   0.00425
           Y            0.00000   1.00000  -0.00000
           Z           -0.00425   0.00000   0.99999
 This molecule is an asymmetric top.
 Rotational symmetry number  1.
 Warning -- assumption of classical behavior for rotation
           may cause significant error
 Rotational temperatures (Kelvin)      0.08901     0.06127     0.05318
 Rotational constants (GHZ):           1.85475     1.27656     1.10805
 Zero-point vibrational energy      67839.6 (Joules/Mol)
                                   16.21407 (Kcal/Mol)
 Warning -- explicit consideration of  10 degrees of freedom as
           vibrations may cause significant error
 Vibrational temperatures:     98.25   240.26   290.50   446.60   448.72
          (Kelvin)            474.21   580.14   632.91   651.82   721.50
                              896.45   983.69  1332.18  1524.81  1642.91
                             1730.76  1746.48  1876.28

 Zero-point correction=                           0.025839 (Hartree/Particle)
 Thermal correction to Energy=                    0.033311
 Thermal correction to Enthalpy=                  0.034255
 Thermal correction to Gibbs Free Energy=        -0.007353
 Sum of electronic and zero-point Energies=          -1395.744585
 Sum of electronic and thermal Energies=             -1395.737113
 Sum of electronic and thermal Enthalpies=           -1395.736169
 Sum of electronic and thermal Free Energies=        -1395.777777

                     E (Thermal)             CV                S
                      KCal/Mol        Cal/Mol-Kelvin    Cal/Mol-Kelvin
 Total                   20.903             25.437             87.570
 Electronic               0.000              0.000              0.000
 Translational            0.889              2.981             41.298
 Rotational               0.889              2.981             29.195
 Vibrational             19.125             19.475             17.077
 Vibration     1          0.598              1.969              4.202
 Vibration     2          0.624              1.883              2.469
 Vibration     3          0.639              1.837              2.116
 Vibration     4          0.699              1.654              1.360
 Vibration     5          0.700              1.651              1.352
 Vibration     6          0.712              1.616              1.262
 Vibration     7          0.769              1.463              0.951
 Vibration     8          0.800              1.383              0.827
 Vibration     9          0.812              1.354              0.787
 Vibration    10          0.857              1.247              0.654

 ## DEPERTURBED TRANSITIONS MOMENTS ##

 Electric dipole : Fundamental Bands
 ------------------------------------------------------------------------

 ## AFTER VARIATIONAL CORRECTION

 Electric dipole : Fundamental Bands
 ------------------------------------------------------------------------

 Optimization completed.
    -- Stationary point found.
 Normal termination of Gaussian 16 at Tue Sep 15 17:11:22 2020.
