 Gaussian 16, Revision C.01,
 Gaussian 16:  ES64L-G16RevC.01  3-Jul-2019

 ---------------------------------------------------------------
 # wB97xD/Gen Freq Opt=(VeryTight,ZMatrix,CalcAll) Int=UltraFine
 ---------------------------------------------------------------

 -----------------------------------
 CFC-11 - CCl3F HARMONIC FREQUENCIES
 -----------------------------------
 Symbolic Z-matrix:
 Charge =  0 Multiplicity = 1

 SCF Done:  E(RwB97XD) =  -1518.46241679     A.U. after   12 cycles
 SCF Done:  E(RwB97XD) =  -1518.46295229     A.U. after   10 cycles
 SCF Done:  E(RwB97XD) =  -1518.46295566     A.U. after    8 cycles
 SCF Done:  E(RwB97XD) =  -1518.46295566     A.U. after    4 cycles
 Optimization completed.
    -- Stationary point found.
 Normal termination of Gaussian 16 at Thu Jul 30 11:16:26 2020.

 -------------------------------------------------------------------
 #N Geom=AllCheck Guess=TCheck SCRF=Check GenChk RwB97XD/ChkBas Freq
 -------------------------------------------------------------------

 Structure from the checkpoint file:  "checkpoint.chk"
 -----------------------------------
 CFC-11 - CCl3F HARMONIC FREQUENCIES
 -----------------------------------
 Charge =  0 Multiplicity = 1

                         Standard orientation:
 ---------------------------------------------------------------------
 Center     Atomic      Atomic             Coordinates (Angstroms)
 Number     Number       Type             X           Y           Z
 ---------------------------------------------------------------------
      1          6           0        0.000094    0.000000    0.248069
      2          9           0        0.000094    0.000000    1.584247
      3         17           0        1.683116    0.000026   -0.308895
      4         17           0       -0.841622    1.457596   -0.308689
      5         17           0       -0.841577   -1.457622   -0.308689
 ---------------------------------------------------------------------

 SCF Done:  E(RwB97XD) =  -1518.46295566     A.U. after    1 cycles

 The electronic state is 1-A.
 Alpha  occ. eigenvalues -- -101.71975-101.71973-101.71973 -24.87657 -10.56810
 Alpha  occ. eigenvalues --   -9.62013  -9.62011  -9.62010  -7.36798  -7.36797
 Alpha  occ. eigenvalues --   -7.36796  -7.35641  -7.35639  -7.35639  -7.35633
 Alpha  occ. eigenvalues --   -7.35631  -7.35631  -1.41050  -1.05838  -0.96785
 Alpha  occ. eigenvalues --   -0.96783  -0.77737  -0.66096  -0.64931  -0.64930
 Alpha  occ. eigenvalues --   -0.52947  -0.52946  -0.46733  -0.45484  -0.45483
 Alpha  occ. eigenvalues --   -0.42413  -0.42411  -0.40924
 Alpha virt. eigenvalues --    0.00922   0.05852   0.05853   0.05995   0.08398
 Alpha virt. eigenvalues --    0.08398   0.08967   0.12319   0.12420   0.12420
 Alpha virt. eigenvalues --    0.13864   0.13865   0.15745   0.16477   0.16837

 Mulliken charges:
               1
     1  C    0.729202
     2  F   -0.349531
     3  Cl  -0.126530
     4  Cl  -0.126570
     5  Cl  -0.126570
 Sum of Mulliken charges =  -0.00000

 Dipole moment (field-independent basis, Debye):
    X=              0.0006    Y=              0.0000    Z=             -0.3500  Tot=              0.3500
 Quadrupole moment (field-independent basis, Debye-Ang):
   XX=            -46.8303   YY=            -46.8315   ZZ=            -49.2333
   XY=             -0.0000   XZ=             -0.0003   YZ=             -0.0000

  Exact polarizability:      62.008      -0.000      62.026      -0.004       0.000      47.908
 Approx polarizability:      69.024       0.000      69.023      -0.001      -0.000      58.112

                      1                      2                      3
                      A                      A                      A
 Frequencies --    250.1464               250.2023               356.9702
 Red. masses --     29.8296                29.8387                25.2326
 Frc consts  --      1.0997                 1.1006                 1.8944
 IR Inten    --      0.0342                 0.0383                 0.2104

                      4                      5                      6
                      A                      A                      A
 Frequencies --    403.8342               403.8644               543.4804
 Red. masses --     25.2771                25.2760                22.8110
 Frc consts  --      2.4288                 2.4290                 3.9697
 IR Inten    --      0.0123                 0.0130                 1.5980

                      7                      8                      9
                      A                      A                      A
 Frequencies --    849.9056               850.3778              1119.2323
 Red. masses --     12.8855                12.8869                13.7169
 Frc consts  --      5.4839                 5.4906                10.1239
 IR Inten    --    249.6883               249.6129               179.5439

 - Thermochemistry -
 -------------------
 Temperature   298.150 Kelvin.  Pressure   1.00000 Atm.
 Atom     1 has atomic number  6 and mass  12.00000

 Molecular mass:   135.90496 amu.
 Principal axes and moments of inertia in atomic units:
                           1         2         3
     Eigenvalues --   739.24662 739.272761061.28465
           X            1.00000  -0.00000   0.00009
           Y            0.00000   1.00000   0.00000
           Z           -0.00009  -0.00000   1.00000
 This molecule is an asymmetric top.
 Rotational symmetry number  1.
 Warning -- assumption of classical behavior for rotation
           may cause significant error
 Rotational temperatures (Kelvin)      0.11717     0.11716     0.08161
 Rotational constants (GHZ):           2.44132     2.44124     1.70053
 Zero-point vibrational energy      30074.2 (Joules/Mol)
                                    7.18791 (Kcal/Mol)
 Warning -- explicit consideration of   6 degrees of freedom as
           vibrations may cause significant error
 Vibrational temperatures:    359.90   359.99   513.60   581.03   581.07
          (Kelvin)            781.95  1222.82  1223.50  1610.33

 Zero-point correction=                           0.011455 (Hartree/Particle)
 Thermal correction to Energy=                    0.016572
 Thermal correction to Enthalpy=                  0.017516
 Thermal correction to Gibbs Free Energy=        -0.018562
 Sum of electronic and zero-point Energies=          -1518.451501
 Sum of electronic and thermal Energies=             -1518.446384
 Sum of electronic and thermal Enthalpies=           -1518.445440
 Sum of electronic and thermal Free Energies=        -1518.481517

                     E (Thermal)             CV                S
                      KCal/Mol        Cal/Mol-Kelvin    Cal/Mol-Kelvin
 Total                   10.399             16.532             75.932
 Electronic               0.000              0.000              0.000
 Translational            0.889              2.981             40.632
 Rotational               0.889              2.981             27.852
 Vibrational              8.621             10.571              7.447
 Vibration     1          0.663              1.763              1.730
 Vibration     2          0.663              1.762              1.729
 Vibration     3          0.732              1.561              1.135
 Vibration     4          0.769              1.462              0.949
 Vibration     5          0.769              1.462              0.949
 Vibration     6          0.899              1.154              0.558

 Optimization completed.
    -- Stationary point found.
 Normal termination of Gaussian 16 at Thu Jul 30 11:19:57 2020.
