 Gaussian 16, Revision C.01,
 Gaussian 16:  ES64L-G16RevC.01  3-Jul-2019

 ---------------------------------------------------------------
 # wB97xD/Gen Freq Opt=(VeryTight,ZMatrix,CalcAll) Int=UltraFine
 ---------------------------------------------------------------

 -----------------------------------
 CFC-22 - HClF2 HARMONIC FREQUENCIES
 -----------------------------------
 Symbolic Z-matrix:
 Charge =  0 Multiplicity = 1

 SCF Done:  E(RwB97XD) =  -698.485764237     A.U. after   12 cycles
 SCF Done:  E(RwB97XD) =  -698.486220339     A.U. after   10 cycles
 SCF Done:  E(RwB97XD) =  -698.486221334     A.U. after    8 cycles
 SCF Done:  E(RwB97XD) =  -698.486221335     A.U. after    5 cycles
 Optimization completed.
    -- Stationary point found.
 Normal termination of Gaussian 16 at Thu Jul 30 12:29:16 2020.

 -------------------------------------------------------------------
 #N Geom=AllCheck Guess=TCheck SCRF=Check GenChk RwB97XD/ChkBas Freq
 -------------------------------------------------------------------

 Structure from the checkpoint file:  "checkpoint.chk"
 -----------------------------------
 CFC-22 - HClF2 HARMONIC FREQUENCIES
 -----------------------------------
 Charge =  0 Multiplicity = 1

                         Standard orientation:
 ---------------------------------------------------------------------
 Center     Atomic      Atomic             Coordinates (Angstroms)
 Number     Number       Type             X           Y           Z
 ---------------------------------------------------------------------
      1          6           0       -0.444091   -0.000003    0.366778
      2          9           0       -1.029670    1.085267   -0.155416
      3         17           0        1.279674   -0.000010   -0.050381
      4          9           0       -1.029713   -1.085245   -0.155419
      5          1           0       -0.555464   -0.000004    1.453331
 ---------------------------------------------------------------------

 SCF Done:  E(RwB97XD) =  -698.486221335     A.U. after    1 cycles

 The electronic state is 1-A.
 Alpha  occ. eigenvalues -- -101.70295 -24.85734 -24.85732 -10.53279  -9.60396
 Alpha  occ. eigenvalues --   -7.35102  -7.34062  -7.34052  -1.41738  -1.35383
 Alpha  occ. eigenvalues --   -0.98713  -0.81166  -0.69586  -0.68901  -0.65016
 Alpha  occ. eigenvalues --   -0.55996  -0.54645  -0.53481  -0.47577  -0.42886
 Alpha  occ. eigenvalues --   -0.42730
 Alpha virt. eigenvalues --    0.03322   0.05925   0.07564   0.07614   0.08673
 Alpha virt. eigenvalues --    0.12257   0.13170   0.13445   0.14700   0.16904
 Alpha virt. eigenvalues --    0.17183   0.18506   0.20493   0.22890   0.24191

 Mulliken charges:
               1
     1  C    1.307804
     2  F   -0.574147
     3  Cl  -0.469373
     4  F   -0.574143
     5  H    0.309858
 Sum of Mulliken charges =  -0.00000

 Dipole moment (field-independent basis, Debye):
    X=             -0.0826    Y=             -0.0000    Z=              1.4624  Tot=              1.4647
 Quadrupole moment (field-independent basis, Debye-Ang):
   XX=            -28.9328   YY=            -30.3678   ZZ=            -26.8020
   XY=              0.0000   XZ=             -1.4585   YZ=             -0.0000

  Exact polarizability:      36.906      -0.000      29.012      -1.090      -0.000      27.807
 Approx polarizability:      38.995       0.000      31.757      -1.117      -0.000      30.119

                      1                      2                      3
                      A                      A                      A
 Frequencies --    367.4765               413.7177               597.8846
 Red. masses --     15.9908                19.4707                14.3161
 Frc consts  --      1.2723                 1.9635                 3.0152
 IR Inten    --      0.3997                 0.1253                 6.0032

                      4                      5                      6
                      A                      A                      A
 Frequencies --    812.6451              1130.3574              1151.9825
 Red. masses --      5.3416                10.4261                 7.0586
 Frc consts  --      2.0784                 7.8488                 5.5190
 IR Inten    --    153.0252               233.8710               238.5751

                      7                      8                      9
                      A                      A                      A
 Frequencies --   1319.9478              1368.9425              3170.7756
 Red. masses --      1.1562                 1.1648                 1.0897
 Frc consts  --      1.1868                 1.2861                 6.4551
 IR Inten    --     63.2299                14.9595                 7.3252

 - Thermochemistry -
 -------------------
 Temperature   298.150 Kelvin.  Pressure   1.00000 Atm.
 Atom     1 has atomic number  6 and mass  12.00000

 Molecular mass:    85.97348 amu.
 Principal axes and moments of inertia in atomic units:
                           1         2         3
     Eigenvalues --   176.59690 374.74406 517.77124
           X            0.99994  -0.00000  -0.01102
           Y            0.00000   1.00000  -0.00000
           Z            0.01102   0.00000   0.99994
 This molecule is an asymmetric top.
 Rotational symmetry number  1.
 Rotational temperatures (Kelvin)      0.49046     0.23113     0.16728
 Rotational constants (GHZ):          10.21955     4.81593     3.48560
 Zero-point vibrational energy      61809.4 (Joules/Mol)
                                   14.77281 (Kcal/Mol)
 Warning -- explicit consideration of   3 degrees of freedom as
           vibrations may cause significant error
 Vibrational temperatures:    528.72   595.25   860.22  1169.22  1626.33
          (Kelvin)           1657.45  1899.11  1969.60  4562.04

 Zero-point correction=                           0.023542 (Hartree/Particle)
 Thermal correction to Energy=                    0.027310
 Thermal correction to Enthalpy=                  0.028254
 Thermal correction to Gibbs Free Energy=        -0.003634
 Sum of electronic and zero-point Energies=           -698.462679
 Sum of electronic and thermal Energies=              -698.458911
 Sum of electronic and thermal Enthalpies=            -698.457967
 Sum of electronic and thermal Free Energies=         -698.489855

                     E (Thermal)             CV                S
                      KCal/Mol        Cal/Mol-Kelvin    Cal/Mol-Kelvin
 Total                   17.137             11.357             67.115
 Electronic               0.000              0.000              0.000
 Translational            0.889              2.981             39.268
 Rotational               0.889              2.981             25.042
 Vibrational             15.360              5.396              2.805
 Vibration     1          0.740              1.539              1.090
 Vibration     2          0.777              1.440              0.914
 Vibration     3          0.956              1.036              0.453

 Optimization completed.
    -- Stationary point found.
 Normal termination of Gaussian 16 at Thu Jul 30 12:31:19 2020.
