 Gaussian 16, Revision C.01,
 Gaussian 16:  ES64L-G16RevC.01  3-Jul-2019

 ---------------------------------------------------------------
 # wB97xD/Gen Freq Opt=(VeryTight,ZMatrix,CalcAll) Int=UltraFine
 ---------------------------------------------------------------

 ----------------------------------------
 CFC-115 - F3C-CClF2 HARMONIC FREQUENCIES
 ----------------------------------------
 Symbolic Z-matrix:
 Charge =  0 Multiplicity = 1

 SCF Done:  E(RwB97XD) =  -1035.37844779     A.U. after   13 cycles
 SCF Done:  E(RwB97XD) =  -1035.38421576     A.U. after   11 cycles
 SCF Done:  E(RwB97XD) =  -1035.38424305     A.U. after    9 cycles
 SCF Done:  E(RwB97XD) =  -1035.38424308     A.U. after    7 cycles
 SCF Done:  E(RwB97XD) =  -1035.38424308     A.U. after    3 cycles
 SCF Done:  E(RwB97XD) =  -1035.38424308     A.U. after    2 cycles
 SCF Done:  E(RwB97XD) =  -1035.38424308     A.U. after    3 cycles
 SCF Done:  E(RwB97XD) =  -1035.38424308     A.U. after    3 cycles
 SCF Done:  E(RwB97XD) =  -1035.38424308     A.U. after    3 cycles
 Optimization completed.
    -- Stationary point found.
 Normal termination of Gaussian 16 at Thu Jul 30 17:35:42 2020.

 -------------------------------------------------------------------
 #N Geom=AllCheck Guess=TCheck SCRF=Check GenChk RwB97XD/ChkBas Freq
 -------------------------------------------------------------------

 Structure from the checkpoint file:  "checkpoint.chk"
 ----------------------------------------
 CFC-115 - F3C-CClF2 HARMONIC FREQUENCIES
 ----------------------------------------
 Charge =  0 Multiplicity = 1

                         Standard orientation:
 ---------------------------------------------------------------------
 Center     Atomic      Atomic             Coordinates (Angstroms)
 Number     Number       Type             X           Y           Z
 ---------------------------------------------------------------------
      1          6           0       -0.944161   -0.227078   -0.000000
      2          6           0        0.446538    0.460519   -0.000001
      3          9           0       -1.086097   -0.982471   -1.083470
      4          9           0       -1.890648    0.708853   -0.000028
      5          9           0       -1.086117   -0.982425    1.083498
      6          9           0        0.537983    1.233554   -1.083659
      7         17           0        1.756930   -0.723542    0.000000
      8          9           0        0.537982    1.233553    1.083659
 ---------------------------------------------------------------------

 SCF Done:  E(RwB97XD) =  -1035.38424308     A.U. after    1 cycles

 The electronic state is 1-A.
 Alpha  occ. eigenvalues -- -101.72380 -24.88065 -24.88062 -24.87996 -24.87996
 Alpha  occ. eigenvalues --  -24.87931 -10.59037 -10.56494  -9.62424  -7.37176
 Alpha  occ. eigenvalues --   -7.36071  -7.36062  -1.47664  -1.44057  -1.38595
 Alpha  occ. eigenvalues --   -1.38067  -1.37502  -1.01404  -0.89825  -0.80724
 Alpha  occ. eigenvalues --   -0.75128  -0.74169  -0.73476  -0.70599  -0.67358
 Alpha  occ. eigenvalues --   -0.61251  -0.60243  -0.59921  -0.58415  -0.56762
 Alpha  occ. eigenvalues --   -0.56336  -0.55086  -0.54796  -0.53929  -0.48605
 Alpha  occ. eigenvalues --   -0.44527  -0.44499
 Alpha virt. eigenvalues --    0.04553   0.06114   0.06549   0.07403   0.07535
 Alpha virt. eigenvalues --    0.09923   0.10080   0.10563   0.12220   0.13095
 Alpha virt. eigenvalues --    0.13904   0.15053   0.16502   0.18469   0.20039

 Mulliken charges:
               1
     1  C    2.489415
     2  C    1.460010
     3  F   -0.739744
     4  F   -0.749476
     5  F   -0.739746
     6  F   -0.623163
     7  Cl  -0.474130
     8  F   -0.623165
 Sum of Mulliken charges =   0.00000

 Dipole moment (field-independent basis, Debye):
    X=              0.3454    Y=             -0.2513    Z=             -0.0000  Tot=              0.4272
 Quadrupole moment (field-independent basis, Debye-Ang):
   XX=            -48.3434   YY=            -49.2311   ZZ=            -49.9171
   XY=             -0.9482   XZ=             -0.0000   YZ=             -0.0000

  Exact polarizability:      48.578      -4.361      44.503       0.000      -0.000      41.215
 Approx polarizability:      49.234      -5.767      50.396       0.000      -0.000      47.682

                      1                      2                      3
                      A                      A                      A
 Frequencies --     68.1289               182.1231               219.9751
 Red. masses --     20.3245                22.8141                18.6086
 Frc consts  --      0.0556                 0.4458                 0.5305
 IR Inten    --      0.0400                 1.0424                 1.5920

                      4                      5                      6
                      A                      A                      A
 Frequencies --    315.6072               333.5952               364.4665
 Red. masses --     19.4303                20.3032                18.8373
 Frc consts  --      1.1403                 1.3312                 1.4743
 IR Inten    --      1.1977                 0.0002                 0.0278

                      7                      8                      9
                      A                      A                      A
 Frequencies --    442.5194               451.5400               554.8305
 Red. masses --     24.9276                18.2316                18.5353
 Frc consts  --      2.8760                 2.1901                 3.3618
 IR Inten    --      0.1149                 1.1049                 5.9047

                     10                     11                     12
                      A                      A                      A
 Frequencies --    596.4955               651.9257               767.9703
 Red. masses --     17.8799                17.2856                17.3641
 Frc consts  --      3.7483                 4.3284                 6.0338
 IR Inten    --      0.8188                14.1086                31.2573

                     13                     14                     15
                      A                      A                      A
 Frequencies --    987.2106              1145.7344              1210.4513
 Red. masses --     13.4012                13.5918                13.1550
 Frc consts  --      7.6951                10.5123                11.3563
 IR Inten    --    266.0448               198.0725               119.3975

                     16                     17                     18
                      A                      A                      A
 Frequencies --   1246.2667              1260.1821              1374.1587
 Red. masses --     13.1358                13.1941                12.5348
 Frc consts  --     12.0206                12.3451                13.9457
 IR Inten    --    264.9912               342.9599                64.7695

 - Thermochemistry -
 -------------------
 Temperature   298.150 Kelvin.  Pressure   1.00000 Atm.
 Atom     1 has atomic number  6 and mass  12.00000

 Molecular mass:   153.96087 amu.
 Principal axes and moments of inertia in atomic units:
                           1         2         3
     Eigenvalues --   766.804151192.679661322.21897
           X            0.99997  -0.00747   0.00000
           Y            0.00747   0.99997  -0.00000
           Z           -0.00000   0.00000   1.00000
 This molecule is an asymmetric top.
 Rotational symmetry number  1.
 Warning -- assumption of classical behavior for rotation
           may cause significant error
 Rotational temperatures (Kelvin)      0.11295     0.07262     0.06551
 Rotational constants (GHZ):           2.35359     1.51318     1.36493
 Zero-point vibrational energy      72811.8 (Joules/Mol)
                                   17.40244 (Kcal/Mol)
 Warning -- explicit consideration of  10 degrees of freedom as
           vibrations may cause significant error
 Vibrational temperatures:     98.02   262.03   316.50   454.09   479.97
          (Kelvin)            524.39   636.69   649.67   798.28   858.22
                              937.98  1104.94  1420.38  1648.46  1741.57
                             1793.10  1813.12  1977.11

 Zero-point correction=                           0.027733 (Hartree/Particle)
 Thermal correction to Energy=                    0.034822
 Thermal correction to Enthalpy=                  0.035766
 Thermal correction to Gibbs Free Energy=        -0.004723
 Sum of electronic and zero-point Energies=          -1035.356511
 Sum of electronic and thermal Energies=             -1035.349421
 Sum of electronic and thermal Enthalpies=           -1035.348477
 Sum of electronic and thermal Free Energies=        -1035.388966

                     E (Thermal)             CV                S
                      KCal/Mol        Cal/Mol-Kelvin    Cal/Mol-Kelvin
 Total                   21.851             24.229             85.217
 Electronic               0.000              0.000              0.000
 Translational            0.889              2.981             41.004
 Rotational               0.889              2.981             28.582
 Vibrational             20.074             18.267             15.630
 Vibration     1          0.598              1.969              4.207
 Vibration     2          0.630              1.864              2.307
 Vibration     3          0.647              1.811              1.959
 Vibration     4          0.703              1.644              1.333
 Vibration     5          0.715              1.608              1.243
 Vibration     6          0.738              1.545              1.103
 Vibration     7          0.802              1.377              0.819
 Vibration     8          0.810              1.357              0.791
 Vibration     9          0.910              1.129              0.534
 Vibration    10          0.954              1.039              0.456

                       ! Non-Optimized Parameters !
 Normal termination of Gaussian 16 at Thu Jul 30 17:42:56 2020.
