 Gaussian 16, Revision C.01,
 Gaussian 16:  ES64L-G16RevC.01  3-Jul-2019

 ---------------------------------------------------------------
 # wB97xD/Gen Freq Opt=(VeryTight,ZMatrix,CalcAll) Int=UltraFine
 ---------------------------------------------------------------

 ------------------------------------------
 CFC-113 - Cl2FC-CClF2 HARMONIC FREQUENCIES
 ------------------------------------------
 Symbolic Z-matrix:
 Charge =  0 Multiplicity = 1

 SCF Done:  E(RwB97XD) =  -1756.15485833     A.U. after   14 cycles
 SCF Done:  E(RwB97XD) =  -1756.15944975     A.U. after   11 cycles
 SCF Done:  E(RwB97XD) =  -1756.15946902     A.U. after    9 cycles
 SCF Done:  E(RwB97XD) =  -1756.15946905     A.U. after    6 cycles
 Optimization completed.
    -- Stationary point found.
 Normal termination of Gaussian 16 at Thu Jul 30 13:06:40 2020.

 -------------------------------------------------------------------
 #N Geom=AllCheck Guess=TCheck SCRF=Check GenChk RwB97XD/ChkBas Freq
 -------------------------------------------------------------------

 Structure from the checkpoint file:  "checkpoint.chk"
 ------------------------------------------
 CFC-113 - Cl2FC-CClF2 HARMONIC FREQUENCIES
 ------------------------------------------
 Charge =  0 Multiplicity = 1

                         Standard orientation:
 ---------------------------------------------------------------------
 Center     Atomic      Atomic             Coordinates (Angstroms)
 Number     Number       Type             X           Y           Z
 ---------------------------------------------------------------------
      1          6           0        0.144313    0.960290   -0.000000
      2          6           0       -0.609919   -0.408602    0.000000
      3         17           0        1.902101    0.790944    0.000000
      4          9           0       -0.235650    1.647335    1.079558
      5          9           0       -0.235650    1.647335   -1.079558
      6         17           0       -0.235650   -1.333933    1.460800
      7         17           0       -0.235650   -1.333933   -1.460800
      8          9           0       -1.920918   -0.117166   -0.000000
 ---------------------------------------------------------------------

 SCF Done:  E(RwB97XD) =  -1756.15946905     A.U. after    1 cycles

 The electronic state is 1-A'.
 Alpha  occ. eigenvalues -- -101.72247-101.72246-101.72002 -24.87605 -24.87602
 Alpha  occ. eigenvalues --  -24.87592 -10.56475 -10.53838  -9.62257  -9.62255
 Alpha  occ. eigenvalues --   -9.62048  -7.37031  -7.37031  -7.36801  -7.35897
 Alpha  occ. eigenvalues --   -7.35897  -7.35884  -7.35884  -7.35697  -7.35684
 Alpha  occ. eigenvalues --   -1.44345  -1.40299  -1.37409  -1.05192  -0.99840
 Alpha  occ. eigenvalues --   -0.96998  -0.86583  -0.77484  -0.71761  -0.71411
 Alpha  occ. eigenvalues --   -0.68216  -0.64378  -0.64082  -0.59118  -0.57418
 Alpha  occ. eigenvalues --   -0.55345  -0.54359  -0.51895  -0.50189  -0.46951
 Alpha  occ. eigenvalues --   -0.45307  -0.44186  -0.43363  -0.42647  -0.42073
 Alpha virt. eigenvalues --    0.02670   0.05125   0.05179   0.05485   0.07196
 Alpha virt. eigenvalues --    0.08063   0.08363   0.10058   0.10161   0.10212
 Alpha virt. eigenvalues --    0.11394   0.11927   0.14127   0.14923   0.15260

 Mulliken charges:
               1
     1  C    1.916697
     2  C    0.837029
     3  Cl  -0.477044
     4  F   -0.575566
     5  F   -0.575566
     6  Cl  -0.297308
     7  Cl  -0.297308
     8  F   -0.530935
 Sum of Mulliken charges =  -0.00000

 Dipole moment (field-independent basis, Debye):
    X=              0.5534    Y=             -0.5305    Z=             -0.0000  Tot=              0.7666
 Quadrupole moment (field-independent basis, Debye-Ang):
   XX=            -63.7234   YY=            -64.2342   ZZ=            -62.9640
   XY=              0.0542   XZ=             -0.0000   YZ=              0.0000

  Exact polarizability:      68.159       1.816      66.333       0.000       0.000      72.759
 Approx polarizability:      79.694      -3.716      73.434       0.000      -0.000      84.792

                      1                      2                      3
                     A"                     A'                     A"
 Frequencies --     71.4406               166.9244               178.2337
 Red. masses --     25.6613                30.4751                25.7383
 Frc consts  --      0.0772                 0.5003                 0.4817
 IR Inten    --      0.0077                 0.1836                 0.4467

                      4                      5                      6
                     A'                     A'                     A"
 Frequencies --    254.4231               306.7985               312.5691
 Red. masses --     26.3890                19.8517                20.8185
 Frc consts  --      1.0064                 1.1009                 1.1984
 IR Inten    --      0.0695                 1.2540                 0.6208

                      7                      8                      9
                     A'                     A"                     A'
 Frequencies --    377.5353               384.6158               442.6663
 Red. masses --     22.5147                22.2768                26.1413
 Frc consts  --      1.8907                 1.9416                 3.0181
 IR Inten    --      0.1728                 0.3321                 0.1778

                     10                     11                     12
                     A"                     A'                     A'
 Frequencies --    461.2395               513.0892               637.2339
 Red. masses --     20.1175                20.5869                17.6036
 Frc consts  --      2.5216                 3.1932                 4.2116
 IR Inten    --      1.9950                 3.6217                16.3383

                     13                     14                     15
                     A'                     A"                     A'
 Frequencies --    892.6788               909.7913              1056.3734
 Red. masses --     13.3214                12.7793                13.0145
 Frc consts  --      6.2545                 6.2322                 8.5568
 IR Inten    --    141.3920               228.7963               277.2813

                     16                     17                     18
                     A'                     A"                     A'
 Frequencies --   1128.9265              1198.4828              1244.5017
 Red. masses --     13.3834                13.2709                12.8016
 Frc consts  --     10.0496                11.2309                11.6816
 IR Inten    --      8.9514               139.6242               162.6564

 - Thermochemistry -
 -------------------
 Temperature   298.150 Kelvin.  Pressure   1.00000 Atm.
 Atom     1 has atomic number  6 and mass  12.00000

 Molecular mass:   185.90177 amu.
 Principal axes and moments of inertia in atomic units:
                           1         2         3
     Eigenvalues --  1265.618961678.672891795.23984
           X            0.55957   0.00000   0.82878
           Y            0.82878   0.00000  -0.55957
           Z           -0.00000   1.00000  -0.00000
 This molecule is an asymmetric top.
 Rotational symmetry number  1.
 Warning -- assumption of classical behavior for rotation
           may cause significant error
 Rotational temperatures (Kelvin)      0.06844     0.05160     0.04825
 Rotational constants (GHZ):           1.42598     1.07510     1.00529
 Zero-point vibrational energy      63028.4 (Joules/Mol)
                                   15.06415 (Kcal/Mol)
 Warning -- explicit consideration of  11 degrees of freedom as
           vibrations may cause significant error
 Vibrational temperatures:    102.79   240.17   256.44   366.06   441.41
          (Kelvin)            449.72   543.19   553.38   636.90   663.62
                              738.22   916.84  1284.37  1308.99  1519.89
                             1624.27  1724.35  1790.56

 Zero-point correction=                           0.024006 (Hartree/Particle)
 Thermal correction to Energy=                    0.031863
 Thermal correction to Enthalpy=                  0.032807
 Thermal correction to Gibbs Free Energy=        -0.009859
 Sum of electronic and zero-point Energies=          -1756.135463
 Sum of electronic and thermal Energies=             -1756.127606
 Sum of electronic and thermal Enthalpies=           -1756.126662
 Sum of electronic and thermal Free Energies=        -1756.169328

                     E (Thermal)             CV                S
                      KCal/Mol        Cal/Mol-Kelvin    Cal/Mol-Kelvin
 Total                   19.994             26.612             89.799
 Electronic               0.000              0.000              0.000
 Translational            0.889              2.981             41.566
 Rotational               0.889              2.981             29.724
 Vibrational             18.217             20.651             18.509
 Vibration     1          0.598              1.968              4.113
 Vibration     2          0.624              1.883              2.470
 Vibration     3          0.629              1.869              2.347
 Vibration     4          0.665              1.755              1.700
 Vibration     5          0.697              1.661              1.380
 Vibration     6          0.701              1.650              1.349
 Vibration     7          0.748              1.518              1.049
 Vibration     8          0.754              1.503              1.021
 Vibration     9          0.802              1.377              0.818
 Vibration    10          0.819              1.336              0.763
 Vibration    11          0.868              1.221              0.626

 Optimization completed.
    -- Stationary point found.
 Normal termination of Gaussian 16 at Thu Jul 30 13:18:34 2020.
