 Gaussian 16, Revision C.01,
 Gaussian 16:  ES64L-G16RevC.01  3-Jul-2019

 ---------------------------------------------------------------
 # wB97xD/Gen Freq Opt=(VeryTight,ZMatrix,CalcAll) Int=UltraFine
 ---------------------------------------------------------------

 ------------------------------------
 CFC-12 - CCl2F2 HARMONIC FREQUENCIES
 ------------------------------------
 Symbolic Z-matrix:
 Charge =  0 Multiplicity = 1

 SCF Done:  E(RwB97XD) =  -1158.07466324     A.U. after   12 cycles
 SCF Done:  E(RwB97XD) =  -1158.07584431     A.U. after   10 cycles
 SCF Done:  E(RwB97XD) =  -1158.07585431     A.U. after    8 cycles
 SCF Done:  E(RwB97XD) =  -1158.07585432     A.U. after    6 cycles
 Optimization completed.
    -- Stationary point found.
 Normal termination of Gaussian 16 at Thu Jul 30 11:26:57 2020.

 -------------------------------------------------------------------
 #N Geom=AllCheck Guess=TCheck SCRF=Check GenChk RwB97XD/ChkBas Freq
 -------------------------------------------------------------------

 Structure from the checkpoint file:  "checkpoint.chk"
 ------------------------------------
 CFC-12 - CCl2F2 HARMONIC FREQUENCIES
 ------------------------------------
 Charge =  0 Multiplicity = 1

                         Standard orientation:
 ---------------------------------------------------------------------
 Center     Atomic      Atomic             Coordinates (Angstroms)
 Number     Number       Type             X           Y           Z
 ---------------------------------------------------------------------
      1          6           0       -0.000000    0.338334   -0.000000
      2          9           0       -0.000000    1.119197    1.076707
      3         17           0        1.465174   -0.652223   -0.000000
      4          9           0       -0.000000    1.119200   -1.076705
      5         17           0       -1.465174   -0.652223   -0.000000
 ---------------------------------------------------------------------

 SCF Done:  E(RwB97XD) =  -1158.07585432     A.U. after    1 cycles

 The electronic state is 1-A.
 Alpha  occ. eigenvalues -- -101.71964-101.71964 -24.87854 -24.87851 -10.59531
 Alpha  occ. eigenvalues --   -9.62039  -9.62038  -7.36808  -7.36807  -7.35670
 Alpha  occ. eigenvalues --   -7.35670  -7.35666  -7.35666  -1.44652  -1.37853
 Alpha  occ. eigenvalues --   -1.02946  -0.97258  -0.80542  -0.71859  -0.68027
 Alpha  occ. eigenvalues --   -0.67632  -0.58292  -0.56640  -0.55567  -0.49871
 Alpha  occ. eigenvalues --   -0.46564  -0.45128  -0.43297  -0.42066
 Alpha virt. eigenvalues --    0.02674   0.06468   0.06601   0.08217   0.08584
 Alpha virt. eigenvalues --    0.08602   0.12482   0.12491   0.13211   0.13568
 Alpha virt. eigenvalues --    0.14189   0.16468   0.16745   0.20051   0.21413

 Mulliken charges:
               1
     1  C    1.515856
     2  F   -0.456541
     3  Cl  -0.301387
     4  F   -0.456541
     5  Cl  -0.301387
 Sum of Mulliken charges =   0.00000

 Dipole moment (field-independent basis, Debye):
    X=             -0.0000    Y=             -0.3861    Z=             -0.0000  Tot=              0.3861
 Quadrupole moment (field-independent basis, Debye-Ang):
   XX=            -38.8253   YY=            -40.6270   ZZ=            -41.6575
   XY=              0.0000   XZ=              0.0000   YZ=             -0.0000

  Exact polarizability:      53.396      -0.000      42.159       0.000       0.000      38.074
 Approx polarizability:      56.399      -0.000      48.547      -0.000      -0.000      44.152

                      1                      2                      3
                      A                      A                      A
 Frequencies --    265.7236               324.7834               437.5037
 Red. masses --     27.1545                21.1941                18.5606
 Frc consts  --      1.1297                 1.3172                 2.0932
 IR Inten    --      0.0630                 0.0000                 0.1100

                      4                      5                      6
                      A                      A                      A
 Frequencies --    440.3813               460.2975               673.3655
 Red. masses --     25.5764                25.5540                18.2303
 Frc consts  --      2.9225                 3.1900                 4.8702
 IR Inten    --      0.0077                 0.1483                11.6698

                      7                      8                      9
                      A                      A                      A
 Frequencies --    915.4392              1124.0501              1188.5358
 Red. masses --     12.7327                13.6432                13.3970
 Frc consts  --      6.2868                10.1563                11.1502
 IR Inten    --    390.1779               296.1790               211.7971

 - Thermochemistry -
 -------------------
 Temperature   298.150 Kelvin.  Pressure   1.00000 Atm.
 Atom     1 has atomic number  6 and mass  12.00000

 Molecular mass:   119.93451 amu.
 Principal axes and moments of inertia in atomic units:
                           1         2         3
     Eigenvalues --   438.38916 693.45526 817.23691
           X            1.00000   0.00000   0.00000
           Y           -0.00000   1.00000   0.00000
           Z           -0.00000  -0.00000   1.00000
 This molecule is an asymmetric top.
 Rotational symmetry number  1.
 Warning -- assumption of classical behavior for rotation
           may cause significant error
 Rotational temperatures (Kelvin)      0.19757     0.12490     0.10598
 Rotational constants (GHZ):           4.11676     2.60253     2.20835
 Zero-point vibrational energy      34871.6 (Joules/Mol)
                                    8.33452 (Kcal/Mol)
 Warning -- explicit consideration of   5 degrees of freedom as
           vibrations may cause significant error
 Vibrational temperatures:    382.32   467.29   629.47   633.61   662.27
          (Kelvin)            968.82  1317.11  1617.26  1710.04

 Zero-point correction=                           0.013282 (Hartree/Particle)
 Thermal correction to Energy=                    0.017986
 Thermal correction to Enthalpy=                  0.018930
 Thermal correction to Gibbs Free Energy=        -0.015837
 Sum of electronic and zero-point Energies=          -1158.062572
 Sum of electronic and thermal Energies=             -1158.057868
 Sum of electronic and thermal Enthalpies=           -1158.056924
 Sum of electronic and thermal Free Energies=        -1158.091692

                     E (Thermal)             CV                S
                      KCal/Mol        Cal/Mol-Kelvin    Cal/Mol-Kelvin
 Total                   11.287             15.265             73.175
 Electronic               0.000              0.000              0.000
 Translational            0.889              2.981             40.260
 Rotational               0.889              2.981             27.010
 Vibrational              9.509              9.303              5.905
 Vibration     1          0.672              1.736              1.624
 Vibration     2          0.709              1.626              1.286
 Vibration     3          0.798              1.388              0.834
 Vibration     4          0.800              1.382              0.825
 Vibration     5          0.818              1.338              0.765

 Optimization completed.
    -- Stationary point found.
 Normal termination of Gaussian 16 at Thu Jul 30 11:28:32 2020.
