 Gaussian 16, Revision C.01,
 Gaussian 16:  ES64L-G16RevC.01  3-Jul-2019

 -------------------------------------------------------------------
 # B2PLYP/cc-pVTZ Freq Opt=(VeryTight,ZMatrix,CalcAll) Int=UltraFine
 -------------------------------------------------------------------

 ------------------------------------------
 CFC-113 - Cl2FC-CClF2 HARMONIC FREQUENCIES
 ------------------------------------------
 Symbolic Z-matrix:
 Charge =  0 Multiplicity = 1

 SCF Done:  E(RB2PLYP) =  -1755.38217213     A.U. after   12 cycles
 E2(B2PLYP) =    -0.5329300051D+00 E(B2PLYP) =    -0.17559151021322D+04
 E2(B2PLYP) =    -0.5329300051D+00 E(B2PLYP) =    -0.17559151021322D+04
 SCF Done:  E(RB2PLYP) =  -1755.38883801     A.U. after   12 cycles
 E2(B2PLYP) =    -0.5307437210D+00 E(B2PLYP) =    -0.17559195817338D+04
 E2(B2PLYP) =    -0.5307437210D+00 E(B2PLYP) =    -0.17559195817338D+04
 SCF Done:  E(RB2PLYP) =  -1755.38869045     A.U. after    8 cycles
 E2(B2PLYP) =    -0.5309075500D+00 E(B2PLYP) =    -0.17559195980034D+04
 E2(B2PLYP) =    -0.5309075500D+00 E(B2PLYP) =    -0.17559195980034D+04
 SCF Done:  E(RB2PLYP) =  -1755.38869284     A.U. after    5 cycles
 E2(B2PLYP) =    -0.5309051923D+00 E(B2PLYP) =    -0.17559195980341D+04
 E2(B2PLYP) =    -0.5309051923D+00 E(B2PLYP) =    -0.17559195980341D+04
 Optimization completed.
    -- Stationary point found.
 Normal termination of Gaussian 16 at Thu Sep 24 05:43:21 2020.

 ----------------------------------------------------------------------
 #N Geom=AllCheck Guess=TCheck SCRF=Check GenChk RB2PLYP(FC)/CC-pVTZ Fr
 eq
 ----------------------------------------------------------------------

 Structure from the checkpoint file:  "checkpoint.chk"
 ------------------------------------------
 CFC-113 - Cl2FC-CClF2 HARMONIC FREQUENCIES
 ------------------------------------------
 Charge =  0 Multiplicity = 1

                         Standard orientation:
 ---------------------------------------------------------------------
 Center     Atomic      Atomic             Coordinates (Angstroms)
 Number     Number       Type             X           Y           Z
 ---------------------------------------------------------------------
      1          6           0        0.145947    0.958487    0.000000
      2          6           0       -0.610349   -0.407341   -0.000000
      3         17           0        1.901994    0.779335    0.000000
      4          9           0       -0.235224    1.647574    1.081019
      5          9           0       -0.235224    1.647574   -1.081019
      6         17           0       -0.235224   -1.330119    1.460365
      7         17           0       -0.235224   -1.330119   -1.460365
      8          9           0       -1.923982   -0.109761    0.000000
 ---------------------------------------------------------------------

 SCF Done:  E(RB2PLYP) =  -1755.38869284     A.U. after    1 cycles
 E2(B2PLYP) =    -0.5309051625D+00 E(B2PLYP) =    -0.17559195980044D+04
 E2(B2PLYP) =    -0.5309051625D+00 E(B2PLYP) =    -0.17559195980044D+04

 The electronic state is 1-A'.
 Alpha  occ. eigenvalues -- -102.97314-102.97314-102.97161 -25.42286 -25.42284
 Alpha  occ. eigenvalues --  -25.42132 -10.89656 -10.87122  -9.96202  -9.96201
 Alpha  occ. eigenvalues --   -9.96070  -7.60255  -7.60255  -7.60112  -7.59579
 Alpha  occ. eigenvalues --   -7.59579  -7.59571  -7.59571  -7.59455  -7.59449
 Alpha  occ. eigenvalues --   -1.49445  -1.45202  -1.42501  -1.06774  -1.01112
 Alpha  occ. eigenvalues --   -0.98044  -0.86824  -0.76876  -0.70704  -0.70246
 Alpha  occ. eigenvalues --   -0.67266  -0.63478  -0.62562  -0.58902  -0.57528
 Alpha  occ. eigenvalues --   -0.55211  -0.53075  -0.50005  -0.48414  -0.44461
 Alpha  occ. eigenvalues --   -0.43027  -0.41611  -0.40962  -0.40294  -0.39565
 Alpha virt. eigenvalues --    0.02834   0.06045   0.06172   0.13437   0.18344
 Alpha virt. eigenvalues --    0.18592   0.24162   0.27081   0.28135   0.28238
 Alpha virt. eigenvalues --    0.31420   0.35422   0.35534   0.36459   0.37780

 Mulliken charges:
               1
     1  C    0.458951
     2  C    0.273330
     3  Cl  -0.088978
     4  F   -0.170913
     5  F   -0.170913
     6  Cl  -0.064670
     7  Cl  -0.064670
     8  F   -0.172137
 Sum of Mulliken charges =  -0.00000

 Dipole moment (field-independent basis, Debye):
    X=              0.6510    Y=             -0.6216    Z=              0.0000  Tot=              0.9002
 Quadrupole moment (field-independent basis, Debye-Ang):
   XX=            -63.6851   YY=            -64.0523   ZZ=            -63.0266
   XY=              0.1611   XZ=             -0.0000   YZ=             -0.0000

  Exact polarizability:      57.674       0.361      54.387       0.000      -0.000      63.001
 Approx polarizability:      72.485      -4.593      65.154       0.000      -0.000      78.483

                      1                      2                      3
                     A"                     A'                     A"
 Frequencies --     75.6404               167.4021               179.5652
 Red. masses --     25.6662                30.5328                25.7582
 Frc consts  --      0.0865                 0.5041                 0.4893
 IR Inten    --      0.0054                 0.2537                 0.5443

                      4                      5                      6
                     A'                     A'                     A"
 Frequencies --    251.0858               305.7883               310.6380
 Red. masses --     26.5731                19.8241                20.8549
 Frc consts  --      0.9870                 1.0922                 1.1857
 IR Inten    --      0.0323                 1.4801                 0.6717

                      7                      8                      9
                     A'                     A"                     A'
 Frequencies --    373.4583               381.6359               437.6145
 Red. masses --     22.7854                22.4748                25.9759
 Frc consts  --      1.8724                 1.9286                 2.9309
 IR Inten    --      0.1925                 0.2933                 0.0834

                     10                     11                     12
                     A"                     A'                     A'
 Frequencies --    457.7551               506.4282               634.7151
 Red. masses --     20.0160                20.5888                17.5574
 Frc consts  --      2.4711                 3.1111                 4.1674
 IR Inten    --      2.9005                 4.2278                17.3208

                     13                     14                     15
                     A'                     A"                     A'
 Frequencies --    882.8350               894.4641              1040.9123
 Red. masses --     13.2890                12.7568                13.0112
 Frc consts  --      6.1024                 6.0133                 8.3061
 IR Inten    --    149.6900               236.1551               280.4886

                     16                     17                     18
                     A'                     A"                     A'
 Frequencies --   1106.9815              1180.8354              1222.2434
 Red. masses --     13.3572                13.2551                12.7998
 Frc consts  --      9.6437                10.8896                11.2660
 IR Inten    --      7.2746               138.2229               165.5146

 - Thermochemistry -
 -------------------
 Temperature   298.150 Kelvin.  Pressure   1.00000 Atm.
 Atom     1 has atomic number  6 and mass  12.00000

 Molecular mass:   185.90177 amu.
 Principal axes and moments of inertia in atomic units:
                           1         2         3
     Eigenvalues --  1268.319081674.373111788.46241
           X            0.56144   0.00000   0.82752
           Y            0.82752   0.00000  -0.56144
           Z            0.00000   1.00000   0.00000
 This molecule is an asymmetric top.
 Rotational symmetry number  1.
 Warning -- assumption of classical behavior for rotation
           may cause significant error
 Rotational temperatures (Kelvin)      0.06829     0.05173     0.04843
 Rotational constants (GHZ):           1.42294     1.07786     1.00910
 Zero-point vibrational energy      62265.6 (Joules/Mol)
                                   14.88184 (Kcal/Mol)
 Warning -- explicit consideration of  11 degrees of freedom as
           vibrations may cause significant error
 Vibrational temperatures:    108.83   240.85   258.35   361.26   439.96
          (Kelvin)            446.94   537.32   549.09   629.63   658.61
                              728.64   913.21  1270.20  1286.93  1497.64
                             1592.70  1698.96  1758.54

 Zero-point correction=                           0.023716 (Hartree/Particle)
 Thermal correction to Energy=                    0.031601
 Thermal correction to Enthalpy=                  0.032545
 Thermal correction to Gibbs Free Energy=        -0.010125
 Sum of electronic and zero-point Energies=          -1755.895882
 Sum of electronic and thermal Energies=             -1755.887997
 Sum of electronic and thermal Enthalpies=           -1755.887053
 Sum of electronic and thermal Free Energies=        -1755.929723

                     E (Thermal)             CV                S
                      KCal/Mol        Cal/Mol-Kelvin    Cal/Mol-Kelvin
 Total                   19.830             26.765             89.806
 Electronic               0.000              0.000              0.000
 Translational            0.889              2.981             41.566
 Rotational               0.889              2.981             29.720
 Vibrational             18.053             20.804             18.521
 Vibration     1          0.599              1.965              4.001
 Vibration     2          0.624              1.883              2.464
 Vibration     3          0.629              1.867              2.333
 Vibration     4          0.663              1.761              1.723
 Vibration     5          0.696              1.663              1.385
 Vibration     6          0.699              1.653              1.359
 Vibration     7          0.745              1.527              1.066
 Vibration     8          0.751              1.509              1.033
 Vibration     9          0.798              1.388              0.834
 Vibration    10          0.816              1.344              0.773
 Vibration    11          0.862              1.236              0.642

 Optimization completed.
    -- Stationary point found.
 Normal termination of Gaussian 16 at Thu Sep 24 07:36:37 2020.
