 Gaussian 16, Revision C.01,
 Gaussian 16:  ES64L-G16RevC.01  3-Jul-2019

 -------------------------------------------------------------------
 # B2PLYP/cc-pVTZ Freq Opt=(VeryTight,ZMatrix,CalcAll) Int=UltraFine
 -------------------------------------------------------------------

 ------------------------------------
 CFC-12 - CCl2F2 HARMONIC FREQUENCIES
 ------------------------------------
 Symbolic Z-matrix:
 Charge =  0 Multiplicity = 1

 SCF Done:  E(RB2PLYP) =  -1157.58130727     A.U. after   12 cycles
 E2(B2PLYP) =    -0.3372916701D+00 E(B2PLYP) =    -0.11579185989424D+04
 E2(B2PLYP) =    -0.3372916701D+00 E(B2PLYP) =    -0.11579185989424D+04
 SCF Done:  E(RB2PLYP) =  -1157.58364058     A.U. after   10 cycles
 E2(B2PLYP) =    -0.3359805947D+00 E(B2PLYP) =    -0.11579196211769D+04
 E2(B2PLYP) =    -0.3359805947D+00 E(B2PLYP) =    -0.11579196211769D+04
 SCF Done:  E(RB2PLYP) =  -1157.58354307     A.U. after    7 cycles
 E2(B2PLYP) =    -0.3360860104D+00 E(B2PLYP) =    -0.11579196290831D+04
 E2(B2PLYP) =    -0.3360860104D+00 E(B2PLYP) =    -0.11579196290831D+04
 SCF Done:  E(RB2PLYP) =  -1157.58354502     A.U. after    5 cycles
 E2(B2PLYP) =    -0.3360840793D+00 E(B2PLYP) =    -0.11579196290956D+04
 E2(B2PLYP) =    -0.3360840793D+00 E(B2PLYP) =    -0.11579196290956D+04
 Optimization completed.
    -- Stationary point found.
 Normal termination of Gaussian 16 at Mon Sep 21 05:27:14 2020.

 ----------------------------------------------------------------------
 #N Geom=AllCheck Guess=TCheck SCRF=Check GenChk RB2PLYP(FC)/CC-pVTZ Fr
 eq
 ----------------------------------------------------------------------

 Structure from the checkpoint file:  "checkpoint.chk"
 ------------------------------------
 CFC-12 - CCl2F2 HARMONIC FREQUENCIES
 ------------------------------------
 Charge =  0 Multiplicity = 1

                         Standard orientation:
 ---------------------------------------------------------------------
 Center     Atomic      Atomic             Coordinates (Angstroms)
 Number     Number       Type             X           Y           Z
 ---------------------------------------------------------------------
      1          6           0        0.000000    0.341026   -0.000000
      2          9           0       -0.000000    1.122930    1.077283
      3         17           0        1.464187   -0.654673    0.000000
      4          9           0        0.000000    1.122929   -1.077284
      5         17           0       -1.464187   -0.654673    0.000000
 ---------------------------------------------------------------------

 SCF Done:  E(RB2PLYP) =  -1157.58354502     A.U. after    1 cycles
 E2(B2PLYP) =    -0.3360840750D+00 E(B2PLYP) =    -0.11579196290913D+04
 E2(B2PLYP) =    -0.3360840750D+00 E(B2PLYP) =    -0.11579196290913D+04

 The electronic state is 1-A.
 Alpha  occ. eigenvalues -- -102.97064-102.97064 -25.42526 -25.42525 -10.92818
 Alpha  occ. eigenvalues --   -9.95967  -9.95966  -7.60016  -7.60016  -7.59343
 Alpha  occ. eigenvalues --   -7.59343  -7.59339  -7.59339  -1.49701  -1.42868
 Alpha  occ. eigenvalues --   -1.04183  -0.98120  -0.80210  -0.70634  -0.67036
 Alpha  occ. eigenvalues --   -0.66771  -0.58311  -0.55341  -0.55222  -0.47659
 Alpha  occ. eigenvalues --   -0.43933  -0.42636  -0.40870  -0.39435
 Alpha virt. eigenvalues --    0.02902   0.08757   0.16179   0.19650   0.27393
 Alpha virt. eigenvalues --    0.30403   0.32456   0.34817   0.37499   0.38422
 Alpha virt. eigenvalues --    0.39004   0.41384   0.41892   0.42420   0.45846

 Mulliken charges:
               1
     1  C    0.470314
     2  F   -0.154535
     3  Cl  -0.080622
     4  F   -0.154535
     5  Cl  -0.080622
 Sum of Mulliken charges =   0.00000

 Dipole moment (field-independent basis, Debye):
    X=              0.0000    Y=             -0.4494    Z=             -0.0000  Tot=              0.4494
 Quadrupole moment (field-independent basis, Debye-Ang):
   XX=            -38.8413   YY=            -40.4696   ZZ=            -41.3537
   XY=             -0.0000   XZ=              0.0000   YZ=             -0.0000

  Exact polarizability:      46.254       0.000      34.006       0.000      -0.000      27.961
 Approx polarizability:      52.472      -0.000      42.828      -0.000      -0.000      36.328

                      1                      2                      3
                      A                      A                      A
 Frequencies --    260.2371               321.3205               434.6747
 Red. masses --     27.3847                21.1987                25.7059
 Frc consts  --      1.0927                 1.2895                 2.8616
 IR Inten    --      0.0422                 0.0000                 0.2533

                      4                      5                      6
                      A                      A                      A
 Frequencies --    436.7888               453.8970               669.1320
 Red. masses --     18.5875                25.6740                18.0917
 Frc consts  --      2.0894                 3.1164                 4.7726
 IR Inten    --      0.3219                 0.4348                13.1351

                      7                      8                      9
                      A                      A                      A
 Frequencies --    893.8508              1111.6171              1178.0992
 Red. masses --     12.7057                13.6297                13.3810
 Frc consts  --      5.9811                 9.9231                10.9422
 IR Inten    --    405.0207               303.0563               217.5318

 - Thermochemistry -
 -------------------
 Temperature   298.150 Kelvin.  Pressure   1.00000 Atm.
 Atom     1 has atomic number  6 and mass  12.00000

 Molecular mass:   119.93451 amu.
 Principal axes and moments of inertia in atomic units:
                           1         2         3
     Eigenvalues --   440.57102 692.90173 818.52763
           X            1.00000   0.00000   0.00000
           Y           -0.00000   1.00000  -0.00000
           Z           -0.00000   0.00000   1.00000
 This molecule is an asymmetric top.
 Rotational symmetry number  1.
 Warning -- assumption of classical behavior for rotation
           may cause significant error
 Rotational temperatures (Kelvin)      0.19659     0.12500     0.10582
 Rotational constants (GHZ):           4.09637     2.60461     2.20486
 Zero-point vibrational energy      34450.2 (Joules/Mol)
                                    8.23379 (Kcal/Mol)
 Warning -- explicit consideration of   5 degrees of freedom as
           vibrations may cause significant error
 Vibrational temperatures:    374.42   462.31   625.40   628.44   653.06
          (Kelvin)            962.73  1286.05  1599.37  1695.02

 Zero-point correction=                           0.013121 (Hartree/Particle)
 Thermal correction to Energy=                    0.017856
 Thermal correction to Enthalpy=                  0.018801
 Thermal correction to Gibbs Free Energy=        -0.016025
 Sum of electronic and zero-point Energies=          -1157.906508
 Sum of electronic and thermal Energies=             -1157.901773
 Sum of electronic and thermal Enthalpies=           -1157.900829
 Sum of electronic and thermal Free Energies=        -1157.935654

                     E (Thermal)             CV                S
                      KCal/Mol        Cal/Mol-Kelvin    Cal/Mol-Kelvin
 Total                   11.205             15.364             73.296
 Electronic               0.000              0.000              0.000
 Translational            0.889              2.981             40.260
 Rotational               0.889              2.981             27.016
 Vibrational              9.428              9.403              6.021
 Vibration     1          0.668              1.745              1.660
 Vibration     2          0.707              1.633              1.303
 Vibration     3          0.795              1.395              0.844
 Vibration     4          0.797              1.390              0.837
 Vibration     5          0.812              1.352              0.784

 Optimization completed.
    -- Stationary point found.
 Normal termination of Gaussian 16 at Mon Sep 21 05:46:55 2020.
