 Gaussian 16, Revision C.01,
 Gaussian 16:  ES64L-G16RevC.01  3-Jul-2019

 ----------------------------------------------------------------------
 # wB97xD/Gen Freq=(anharmonic,ReadAnharm) Opt=(VeryTight,ZMatrix,CalcA
 ll,MaxCycles=400) Int=UltraFine
 ----------------------------------------------------------------------

 -------------------------------------
 CFC-13 - CClF3 ANHARMONIC FREQUENCIES
 -------------------------------------
 Symbolic Z-matrix:
 Charge =  0 Multiplicity = 1

 SCF Done:  E(RwB97XD) =  -797.682481361     A.U. after   11 cycles
 SCF Done:  E(RwB97XD) =  -797.690868002     A.U. after   10 cycles
 SCF Done:  E(RwB97XD) =  -797.691164968     A.U. after    9 cycles
 SCF Done:  E(RwB97XD) =  -797.691165081     A.U. after    7 cycles
 Optimization completed.
    -- Stationary point found.
 Normal termination of Gaussian 16 at Tue Sep 15 15:26:59 2020.

 -------------------------------------------------------------------
 #N Geom=AllCheck Guess=TCheck SCRF=Check GenChk RwB97XD/ChkBas Freq
 -------------------------------------------------------------------

 Structure from the checkpoint file:  "checkpoint.chk"
 -------------------------------------
 CFC-13 - CClF3 ANHARMONIC FREQUENCIES
 -------------------------------------
 Charge =  0 Multiplicity = 1

                         Standard orientation:
 ---------------------------------------------------------------------
 Center     Atomic      Atomic             Coordinates (Angstroms)
 Number     Number       Type             X           Y           Z
 ---------------------------------------------------------------------
      1          6           0        0.353213   -0.000004    0.000000
      2          9           0        0.809636    1.244567    0.000006
      3         17           0       -1.410554    0.000001    0.000000
      4          9           0        0.809634   -0.622288    1.077779
      5          9           0        0.809634   -0.622278   -1.077785
 ---------------------------------------------------------------------

 SCF Done:  E(RwB97XD) =  -797.691165081     A.U. after    1 cycles
 SCF Done:  E(RwB97XD) =  -797.691164262     A.U. after    7 cycles
 SCF Done:  E(RwB97XD) =  -797.691164262     A.U. after    7 cycles
 SCF Done:  E(RwB97XD) =  -797.691164172     A.U. after    7 cycles
 SCF Done:  E(RwB97XD) =  -797.691164352     A.U. after    7 cycles
 SCF Done:  E(RwB97XD) =  -797.691163588     A.U. after    7 cycles
 SCF Done:  E(RwB97XD) =  -797.691162967     A.U. after    8 cycles
 SCF Done:  E(RwB97XD) =  -797.691162967     A.U. after    8 cycles
 SCF Done:  E(RwB97XD) =  -797.691160957     A.U. after    8 cycles
 SCF Done:  E(RwB97XD) =  -797.691160795     A.U. after    8 cycles
 SCF Done:  E(RwB97XD) =  -797.691156900     A.U. after    8 cycles
 SCF Done:  E(RwB97XD) =  -797.691156619     A.U. after    8 cycles
 SCF Done:  E(RwB97XD) =  -797.691154803     A.U. after    8 cycles
 SCF Done:  E(RwB97XD) =  -797.691154790     A.U. after    8 cycles
 SCF Done:  E(RwB97XD) =  -797.691154794     A.U. after    8 cycles
 SCF Done:  E(RwB97XD) =  -797.691154794     A.U. after    8 cycles

 Alpha  occ. eigenvalues -- -101.71981 -24.88049 -24.87944 -24.87839 -10.62186
 Alpha  occ. eigenvalues --   -9.62087  -7.36845  -7.35718  -7.35718  -1.47717
 Alpha  occ. eigenvalues --   -1.38393  -1.38175  -1.00515  -0.82844  -0.73704
 Alpha  occ. eigenvalues --   -0.73632  -0.69826  -0.60258  -0.60252  -0.56684
 Alpha  occ. eigenvalues --   -0.56595  -0.53912  -0.51993  -0.44325  -0.44319
 Alpha virt. eigenvalues --    0.04967   0.07462   0.07684   0.07986   0.07988
 Alpha virt. eigenvalues --    0.12917   0.12921   0.13147   0.17488   0.17557
 Alpha virt. eigenvalues --    0.20481   0.20586   0.23699   0.23752   0.23769

 Mulliken charges:
               1
     1  C    2.205409
     2  F   -0.562335
     3  Cl  -0.518504
     4  F   -0.564989
     5  F   -0.559582
 Sum of Mulliken charges =  -0.00000

 Dipole moment (field-independent basis, Debye):
    X=             -0.3297    Y=             -0.0001    Z=             -0.0265  Tot=              0.3308
 Quadrupole moment (field-independent basis, Debye-Ang):
   XX=            -31.8443   YY=            -33.6414   ZZ=            -33.6410
   XY=             -0.0001   XZ=             -0.0277   YZ=              0.0154

  Exact polarizability:      36.937      -0.000      29.091       0.013      -0.011      29.084
 Approx polarizability:      39.245      -0.000      32.121       0.001      -0.007      32.121

                      1                      2                      3
                      A                      A                      A
 Frequencies --    348.1384               348.1785               477.0807
 Red. masses --     20.3484                20.3483                26.1523
 Frc consts  --      1.4531                 1.4534                 3.5071
 IR Inten    --      0.0008                 0.0009                 0.0494

                      4                      5                      6
                      A                      A                      A
 Frequencies --    559.2639               559.3500               788.8648
 Red. masses --     18.1382                18.1381                17.6687
 Frc consts  --      3.3426                 3.3436                 6.4783
 IR Inten    --      1.5007                 1.4959                36.8493

                      7                      8                      9
                      A                      A                      A
 Frequencies --   1109.7708              1233.7097              1233.8358
 Red. masses --     13.4637                13.2153                13.2153
 Frc consts  --      9.7697                11.8510                11.8534
 IR Inten    --    480.6506               297.3414               297.4826

 - Thermochemistry -
 -------------------
 Temperature   298.150 Kelvin.  Pressure   1.00000 Atm.
 Atom     1 has atomic number  6 and mass  12.00000

 Molecular mass:   103.96406 amu.
 Principal axes and moments of inertia in atomic units:
                           1         2         3
     Eigenvalues --   315.24954 544.80538 544.81833
           X            1.00000  -0.00000   0.00000
           Y            0.00000   1.00000  -0.00000
           Z           -0.00000   0.00000   1.00000
 This molecule is an asymmetric top.
 Rotational symmetry number  1.
 Rotational temperatures (Kelvin)      0.27475     0.15898     0.15898
 Rotational constants (GHZ):           5.72480     3.31263     3.31256
 Zero-point vibrational energy      39824.8 (Joules/Mol)
                                    9.51836 (Kcal/Mol)
 Warning -- explicit consideration of   5 degrees of freedom as
           vibrations may cause significant error
 Vibrational temperatures:    500.89   500.95   686.41   804.66   804.78
          (Kelvin)           1135.00  1596.71  1775.03  1775.21

 Zero-point correction=                           0.015168 (Hartree/Particle)
 Thermal correction to Energy=                    0.019472
 Thermal correction to Enthalpy=                  0.020416
 Thermal correction to Gibbs Free Energy=        -0.013005
 Sum of electronic and zero-point Energies=           -797.675997
 Sum of electronic and thermal Energies=              -797.671693
 Sum of electronic and thermal Enthalpies=            -797.670749
 Sum of electronic and thermal Free Energies=         -797.704170

                     E (Thermal)             CV                S
                      KCal/Mol        Cal/Mol-Kelvin    Cal/Mol-Kelvin
 Total                   12.219             13.968             70.339
 Electronic               0.000              0.000              0.000
 Translational            0.889              2.981             39.834
 Rotational               0.889              2.981             26.040
 Vibrational             10.441              8.006              4.466
 Vibration     1          0.726              1.579              1.175
 Vibration     2          0.726              1.579              1.174
 Vibration     3          0.834              1.301              0.718
 Vibration     4          0.915              1.119              0.525
 Vibration     5          0.915              1.119              0.525

 ## DEPERTURBED TRANSITIONS MOMENTS ##

 Electric dipole : Fundamental Bands
 ------------------------------------------------------------------------

 ## AFTER VARIATIONAL CORRECTION

 Electric dipole : Fundamental Bands
 ------------------------------------------------------------------------

 Optimization completed.
    -- Stationary point found.
 Normal termination of Gaussian 16 at Tue Sep 15 16:38:37 2020.
