 Gaussian 16, Revision C.01,
 Gaussian 16:  ES64L-G16RevC.01  3-Jul-2019

 ----------------------------------------------------------------------
 # wB97xD/Gen Freq=(anharmonic,ReadAnharm) Opt=(VeryTight,ZMatrix,CalcA
 ll) Int=UltraFine
 ----------------------------------------------------------------------

 --------------------------------------
 CFC-12 - CCl2F2 ANHARMONIC FREQUENCIES
 --------------------------------------
 Symbolic Z-matrix:
 Charge =  0 Multiplicity = 1

 SCF Done:  E(RwB97XD) =  -1158.07466324     A.U. after   12 cycles
 SCF Done:  E(RwB97XD) =  -1158.07584431     A.U. after   10 cycles
 SCF Done:  E(RwB97XD) =  -1158.07585431     A.U. after    8 cycles
 SCF Done:  E(RwB97XD) =  -1158.07585432     A.U. after    6 cycles
 Optimization completed.
    -- Stationary point found.
 Normal termination of Gaussian 16 at Mon Jul 27 13:27:38 2020.

 -------------------------------------------------------------------
 #N Geom=AllCheck Guess=TCheck SCRF=Check GenChk RwB97XD/ChkBas Freq
 -------------------------------------------------------------------

 Structure from the checkpoint file:  "checkpoint.chk"
 --------------------------------------
 CFC-12 - CCl2F2 ANHARMONIC FREQUENCIES
 --------------------------------------
 Charge =  0 Multiplicity = 1

                         Standard orientation:
 ---------------------------------------------------------------------
 Center     Atomic      Atomic             Coordinates (Angstroms)
 Number     Number       Type             X           Y           Z
 ---------------------------------------------------------------------
      1          6           0       -0.000000    0.338334   -0.000000
      2          9           0       -0.000000    1.119197    1.076707
      3         17           0        1.465174   -0.652223   -0.000000
      4          9           0       -0.000000    1.119200   -1.076705
      5         17           0       -1.465174   -0.652223   -0.000000
 ---------------------------------------------------------------------

 SCF Done:  E(RwB97XD) =  -1158.07585432     A.U. after    1 cycles
 SCF Done:  E(RwB97XD) =  -1158.07585385     A.U. after    8 cycles
 SCF Done:  E(RwB97XD) =  -1158.07585385     A.U. after    8 cycles
 SCF Done:  E(RwB97XD) =  -1158.07585361     A.U. after    8 cycles
 SCF Done:  E(RwB97XD) =  -1158.07585361     A.U. after    8 cycles
 SCF Done:  E(RwB97XD) =  -1158.07585303     A.U. after    8 cycles
 SCF Done:  E(RwB97XD) =  -1158.07585289     A.U. after    7 cycles
 SCF Done:  E(RwB97XD) =  -1158.07585289     A.U. after    7 cycles
 SCF Done:  E(RwB97XD) =  -1158.07585127     A.U. after    8 cycles
 SCF Done:  E(RwB97XD) =  -1158.07585126     A.U. after    8 cycles
 SCF Done:  E(RwB97XD) =  -1158.07584867     A.U. after    9 cycles
 SCF Done:  E(RwB97XD) =  -1158.07584867     A.U. after    9 cycles
 SCF Done:  E(RwB97XD) =  -1158.07584576     A.U. after    9 cycles
 SCF Done:  E(RwB97XD) =  -1158.07584582     A.U. after    9 cycles
 SCF Done:  E(RwB97XD) =  -1158.07584478     A.U. after    8 cycles
 SCF Done:  E(RwB97XD) =  -1158.07584478     A.U. after    8 cycles

 Alpha  occ. eigenvalues -- -101.71964-101.71964 -24.87949 -24.87756 -10.59531
 Alpha  occ. eigenvalues --   -9.62039  -9.62038  -7.36808  -7.36807  -7.35670
 Alpha  occ. eigenvalues --   -7.35669  -7.35666  -7.35666  -1.44657  -1.37849
 Alpha  occ. eigenvalues --   -1.02946  -0.97258  -0.80543  -0.71859  -0.68028
 Alpha  occ. eigenvalues --   -0.67634  -0.58291  -0.56641  -0.55565  -0.49870
 Alpha  occ. eigenvalues --   -0.46564  -0.45128  -0.43297  -0.42066
 Alpha virt. eigenvalues --    0.02674   0.06468   0.06601   0.08217   0.08584
 Alpha virt. eigenvalues --    0.08602   0.12480   0.12492   0.13211   0.13568
 Alpha virt. eigenvalues --    0.14189   0.16468   0.16742   0.20053   0.21413

 Mulliken charges:
               1
     1  C    1.515811
     2  F   -0.459414
     3  Cl  -0.301386
     4  F   -0.453624
     5  Cl  -0.301386
 Sum of Mulliken charges =  -0.00000

 Dipole moment (field-independent basis, Debye):
    X=             -0.0000    Y=             -0.3860    Z=             -0.0224  Tot=              0.3867
 Quadrupole moment (field-independent basis, Debye-Ang):
   XX=            -38.8253   YY=            -40.6270   ZZ=            -41.6574
   XY=              0.0000   XZ=              0.0000   YZ=             -0.0330

  Exact polarizability:      53.390      -0.000      42.147       0.000       0.018      38.079
 Approx polarizability:      56.399      -0.000      48.547      -0.000       0.006      44.153

                      1                      2                      3
                      A                      A                      A
 Frequencies --    265.4112               324.7159               437.1365
 Red. masses --     27.1536                21.1941                18.5596
 Frc consts  --      1.1270                 1.3167                 2.0896
 IR Inten    --      0.0606                 0.0000                 0.1124

                      4                      5                      6
                      A                      A                      A
 Frequencies --    440.3265               460.2722               673.2779
 Red. masses --     25.5756                25.5516                18.2300
 Frc consts  --      2.9216                 3.1893                 4.8689
 IR Inten    --      0.0070                 0.1467                11.7039

                      7                      8                      9
                      A                      A                      A
 Frequencies --    914.9046              1123.9082              1188.5689
 Red. masses --     12.7329                13.6442                13.3976
 Frc consts  --      6.2796                10.1546                11.1513
 IR Inten    --    390.6557               296.1927               211.6652

 - Thermochemistry -
 -------------------
 Temperature   298.150 Kelvin.  Pressure   1.00000 Atm.
 Atom     1 has atomic number  6 and mass  12.00000

 Molecular mass:   119.93451 amu.
 Principal axes and moments of inertia in atomic units:
                           1         2         3
     Eigenvalues --   438.38916 693.45526 817.23691
           X            1.00000   0.00000   0.00000
           Y           -0.00000   1.00000   0.00000
           Z           -0.00000  -0.00000   1.00000
 This molecule is an asymmetric top.
 Rotational symmetry number  1.
 Warning -- assumption of classical behavior for rotation
           may cause significant error
 Rotational temperatures (Kelvin)      0.19757     0.12490     0.10598
 Rotational constants (GHZ):           4.11676     2.60253     2.20835
 Zero-point vibrational energy      34862.3 (Joules/Mol)
                                    8.33229 (Kcal/Mol)
 Warning -- explicit consideration of   5 degrees of freedom as
           vibrations may cause significant error
 Vibrational temperatures:    381.87   467.19   628.94   633.53   662.23
          (Kelvin)            968.70  1316.34  1617.05  1710.09

 Zero-point correction=                           0.013278 (Hartree/Particle)
 Thermal correction to Energy=                    0.017984
 Thermal correction to Enthalpy=                  0.018928
 Thermal correction to Gibbs Free Energy=        -0.015842
 Sum of electronic and zero-point Energies=          -1158.062576
 Sum of electronic and thermal Energies=             -1158.057871
 Sum of electronic and thermal Enthalpies=           -1158.056926
 Sum of electronic and thermal Free Energies=        -1158.091696

                     E (Thermal)             CV                S
                      KCal/Mol        Cal/Mol-Kelvin    Cal/Mol-Kelvin
 Total                   11.285             15.268             73.179
 Electronic               0.000              0.000              0.000
 Translational            0.889              2.981             40.260
 Rotational               0.889              2.981             27.010
 Vibrational              9.507              9.306              5.910
 Vibration     1          0.671              1.736              1.626
 Vibration     2          0.709              1.626              1.286
 Vibration     3          0.797              1.389              0.836
 Vibration     4          0.800              1.382              0.826
 Vibration     5          0.818              1.338              0.765

 ## DEPERTURBED TRANSITIONS MOMENTS ##

 Electric dipole : Fundamental Bands
 ------------------------------------------------------------------------

 ## AFTER VARIATIONAL CORRECTION

 Electric dipole : Fundamental Bands
 ------------------------------------------------------------------------

 Optimization completed.
    -- Stationary point found.
 Normal termination of Gaussian 16 at Mon Jul 27 14:07:21 2020.
