 Gaussian 16, Revision C.01,
 Gaussian 16:  ES64L-G16RevC.01  3-Jul-2019

 ----------------------------------------------------------------------
 # wB97xD/Gen Freq=(anharmonic,ReadAnharm) Opt=(VeryTight,ZMatrix,CalcA
 ll) Int=UltraFine
 ----------------------------------------------------------------------

 --------------------------------------------
 CFC-114 - ClF2C-CClF2 ANHARMONIC FREQUENCIES
 --------------------------------------------
 Symbolic Z-matrix:
 Charge =  0 Multiplicity = 1

 SCF Done:  E(RwB97XD) =  -1395.76618422     A.U. after   12 cycles
 SCF Done:  E(RwB97XD) =  -1395.77079675     A.U. after   11 cycles
 SCF Done:  E(RwB97XD) =  -1395.77082331     A.U. after    9 cycles
 SCF Done:  E(RwB97XD) =  -1395.77082339     A.U. after    7 cycles
 SCF Done:  E(RwB97XD) =  -1395.77082339     A.U. after    4 cycles
 Optimization completed.
    -- Stationary point found.
 Normal termination of Gaussian 16 at Wed Sep 16 03:07:59 2020.

 -------------------------------------------------------------------
 #N Geom=AllCheck Guess=TCheck SCRF=Check GenChk RwB97XD/ChkBas Freq
 -------------------------------------------------------------------

 Structure from the checkpoint file:  "checkpoint.chk"
 --------------------------------------------
 CFC-114 - ClF2C-CClF2 ANHARMONIC FREQUENCIES
 --------------------------------------------
 Charge =  0 Multiplicity = 1

                         Standard orientation:
 ---------------------------------------------------------------------
 Center     Atomic      Atomic             Coordinates (Angstroms)
 Number     Number       Type             X           Y           Z
 ---------------------------------------------------------------------
      1          6           0        0.599883   -0.494843    0.000000
      2          6           0       -0.599883    0.494843    0.000000
      3          9           0        0.531364   -1.267989    1.083759
      4         17           0        2.136385    0.382968   -0.000001
      5          9           0        0.531363   -1.267990   -1.083758
      6          9           0       -0.531364    1.267989    1.083759
      7         17           0       -2.136385   -0.382967   -0.000001
      8          9           0       -0.531363    1.267989   -1.083758
 ---------------------------------------------------------------------

 SCF Done:  E(RwB97XD) =  -1395.77082339     A.U. after    1 cycles
 SCF Done:  E(RwB97XD) =  -1395.77082336     A.U. after    7 cycles
 SCF Done:  E(RwB97XD) =  -1395.77082336     A.U. after    7 cycles
 SCF Done:  E(RwB97XD) =  -1395.77082320     A.U. after    7 cycles
 SCF Done:  E(RwB97XD) =  -1395.77082320     A.U. after    7 cycles
 SCF Done:  E(RwB97XD) =  -1395.77081579     A.U. after    8 cycles
 SCF Done:  E(RwB97XD) =  -1395.77081555     A.U. after    8 cycles
 SCF Done:  E(RwB97XD) =  -1395.77081428     A.U. after    8 cycles
 SCF Done:  E(RwB97XD) =  -1395.77081428     A.U. after    8 cycles
 SCF Done:  E(RwB97XD) =  -1395.77081349     A.U. after    8 cycles
 SCF Done:  E(RwB97XD) =  -1395.77081349     A.U. after    8 cycles
 SCF Done:  E(RwB97XD) =  -1395.77081325     A.U. after    8 cycles
 SCF Done:  E(RwB97XD) =  -1395.77081325     A.U. after    8 cycles
 SCF Done:  E(RwB97XD) =  -1395.77081185     A.U. after    9 cycles
 SCF Done:  E(RwB97XD) =  -1395.77081183     A.U. after    9 cycles

 Alpha  occ. eigenvalues -- -101.72135-101.72135 -24.87933 -24.87930 -24.87930
 Alpha  occ. eigenvalues --  -24.87930 -10.56481 -10.56465  -9.62175  -9.62174
 Alpha  occ. eigenvalues --   -7.36928  -7.36928  -7.35824  -7.35824  -7.35812
 Alpha  occ. eigenvalues --   -7.35811  -1.45247  -1.43549  -1.38365  -1.37341
 Alpha  occ. eigenvalues --   -1.01577  -1.00480  -0.87578  -0.79525  -0.73819
 Alpha  occ. eigenvalues --   -0.73062  -0.69881  -0.68859  -0.66106  -0.60655
 Alpha  occ. eigenvalues --   -0.58401  -0.58311  -0.56164  -0.56011  -0.54455
 Alpha  occ. eigenvalues --   -0.53415  -0.47655  -0.45706  -0.44583  -0.43917
 Alpha  occ. eigenvalues --   -0.43245
 Alpha virt. eigenvalues --    0.02921   0.05355   0.06676   0.07616   0.07693
 Alpha virt. eigenvalues --    0.07869   0.10035   0.10116   0.11402   0.12121
 Alpha virt. eigenvalues --    0.12156   0.13175   0.13251   0.14631   0.15929

 Mulliken charges:
               1
     1  C    1.732854
     2  C    1.732854
     3  F   -0.609552
     4  Cl  -0.513751
     5  F   -0.609552
     6  F   -0.609552
     7  Cl  -0.513751
     8  F   -0.609551
 Sum of Mulliken charges =  -0.00000

 Dipole moment (field-independent basis, Debye):
    X=             -0.0000    Y=             -0.0000    Z=             -0.0000  Tot=              0.0000
 Quadrupole moment (field-independent basis, Debye-Ang):
   XX=            -53.8590   YY=            -57.1932   ZZ=            -57.8762
   XY=              1.4752   XZ=             -0.0000   YZ=             -0.0000

  Exact polarizability:      71.019       6.802      53.006       0.000      -0.000      49.823
 Approx polarizability:      71.662       9.186      61.670       0.000      -0.000      59.651

                      1                      2                      3
                      A                      A                      A
 Frequencies --     64.9832               164.9702               222.9346
 Red. masses --     22.9551                24.6965                18.5617
 Frc consts  --      0.0571                 0.3960                 0.5435
 IR Inten    --      0.1659                 1.0808                 1.0432

                      4                      5                      6
                      A                      A                      A
 Frequencies --    252.3632               323.2456               360.4279
 Red. masses --     25.5147                20.9002                18.9558
 Frc consts  --      0.9574                 1.2867                 1.4509
 IR Inten    --      0.0000                 0.0000                 0.0000

                      7                      8                      9
                      A                      A                      A
 Frequencies --    377.4653               437.8595               445.5118
 Red. masses --     19.4374                23.8253                26.7657
 Frc consts  --      1.6317                 2.6913                 3.1300
 IR Inten    --      0.2267                 0.8366                 0.0000

                     10                     11                     12
                      A                      A                      A
 Frequencies --    546.3466               610.5385               711.6009
 Red. masses --     17.5764                17.6042                17.7197
 Frc consts  --      3.0911                 3.8663                 5.2867
 IR Inten    --      0.0000                10.5469                 0.0000

                     13                     14                     15
                      A                      A                      A
 Frequencies --    852.1370              1068.4089              1160.7285
 Red. masses --     13.1537                12.6184                13.8274
 Frc consts  --      5.6275                 8.4865                10.9762
 IR Inten    --    380.0997                 0.0000               358.2383

                     16                     17                     18
                      A                      A                      A
 Frequencies --   1210.2342              1224.7491              1307.2503
 Red. masses --     12.9796                13.5363                12.5836
 Frc consts  --     11.2008                11.9632                12.6699
 IR Inten    --      0.0000               365.7276                 0.0000

 - Thermochemistry -
 -------------------
 Temperature   298.150 Kelvin.  Pressure   1.00000 Atm.
 Atom     1 has atomic number  6 and mass  12.00000

 Molecular mass:   169.93132 amu.
 Principal axes and moments of inertia in atomic units:
                           1         2         3
     Eigenvalues --   812.658751566.131601741.30574
           X            0.99999   0.00524  -0.00000
           Y           -0.00524   0.99999  -0.00000
           Z            0.00000   0.00000   1.00000
 This molecule is an asymmetric top.
 Rotational symmetry number  1.
 Warning -- assumption of classical behavior for rotation
           may cause significant error
 Rotational temperatures (Kelvin)      0.10658     0.05530     0.04974
 Rotational constants (GHZ):           2.22079     1.15236     1.03643
 Zero-point vibrational energy      67838.8 (Joules/Mol)
                                   16.21385 (Kcal/Mol)
 Warning -- explicit consideration of  11 degrees of freedom as
           vibrations may cause significant error
 Vibrational temperatures:     93.50   237.36   320.75   363.09   465.08
          (Kelvin)            518.58   543.09   629.98   640.99   786.07
                              878.43  1023.84  1226.04  1537.20  1670.03
                             1741.26  1762.14  1880.84

 Zero-point correction=                           0.025838 (Hartree/Particle)
 Thermal correction to Energy=                    0.033326
 Thermal correction to Enthalpy=                  0.034270
 Thermal correction to Gibbs Free Energy=        -0.007398
 Sum of electronic and zero-point Energies=          -1395.744985
 Sum of electronic and thermal Energies=             -1395.737497
 Sum of electronic and thermal Enthalpies=           -1395.736553
 Sum of electronic and thermal Free Energies=        -1395.778221

                     E (Thermal)             CV                S
                      KCal/Mol        Cal/Mol-Kelvin    Cal/Mol-Kelvin
 Total                   20.912             25.448             87.698
 Electronic               0.000              0.000              0.000
 Translational            0.889              2.981             41.298
 Rotational               0.889              2.981             29.184
 Vibrational             19.135             19.486             17.215
 Vibration     1          0.597              1.971              4.300
 Vibration     2          0.623              1.885              2.492
 Vibration     3          0.649              1.806              1.935
 Vibration     4          0.664              1.759              1.714
 Vibration     5          0.708              1.629              1.294
 Vibration     6          0.735              1.554              1.120
 Vibration     7          0.748              1.518              1.049
 Vibration     8          0.798              1.388              0.833
 Vibration     9          0.805              1.371              0.809
 Vibration    10          0.902              1.148              0.552
 Vibration    11          0.970              1.010              0.432

 ## DEPERTURBED TRANSITIONS MOMENTS ##

 Electric dipole : Fundamental Bands
 ------------------------------------------------------------------------

 ## AFTER VARIATIONAL CORRECTION

 Electric dipole : Fundamental Bands
 ------------------------------------------------------------------------

 Optimization completed.
    -- Stationary point found.
 Normal termination of Gaussian 16 at Wed Sep 16 06:18:01 2020.
