 Gaussian 16, Revision C.01,
 Gaussian 16:  ES64L-G16RevC.01  3-Jul-2019

 ----------------------------------------------------------------------
 # wB97xD/Gen Freq=(anharmonic,ReadAnharm) Opt=(VeryTight,ZMatrix,CalcA
 ll) Int=UltraFine
 ----------------------------------------------------------------------

 -------------------------------------
 CFC-22 - HClF2 ANHARMONIC FREQUENCIES
 -------------------------------------
 Symbolic Z-matrix:
 Charge =  0 Multiplicity = 1

 SCF Done:  E(RwB97XD) =  -698.485764237     A.U. after   12 cycles
 SCF Done:  E(RwB97XD) =  -698.486220339     A.U. after   10 cycles
 SCF Done:  E(RwB97XD) =  -698.486221334     A.U. after    8 cycles
 SCF Done:  E(RwB97XD) =  -698.486221335     A.U. after    5 cycles
 Optimization completed.
    -- Stationary point found.
 Normal termination of Gaussian 16 at Mon Jul 27 14:38:45 2020.

 -------------------------------------------------------------------
 #N Geom=AllCheck Guess=TCheck SCRF=Check GenChk RwB97XD/ChkBas Freq
 -------------------------------------------------------------------

 Structure from the checkpoint file:  "checkpoint.chk"
 -------------------------------------
 CFC-22 - HClF2 ANHARMONIC FREQUENCIES
 -------------------------------------
 Charge =  0 Multiplicity = 1

                         Standard orientation:
 ---------------------------------------------------------------------
 Center     Atomic      Atomic             Coordinates (Angstroms)
 Number     Number       Type             X           Y           Z
 ---------------------------------------------------------------------
      1          6           0       -0.444091   -0.000003    0.366778
      2          9           0       -1.029670    1.085267   -0.155416
      3         17           0        1.279674   -0.000010   -0.050381
      4          9           0       -1.029713   -1.085245   -0.155419
      5          1           0       -0.555464   -0.000004    1.453331
 ---------------------------------------------------------------------

 SCF Done:  E(RwB97XD) =  -698.486221335     A.U. after    1 cycles
 SCF Done:  E(RwB97XD) =  -698.486220436     A.U. after    8 cycles
 SCF Done:  E(RwB97XD) =  -698.486220412     A.U. after    8 cycles
 SCF Done:  E(RwB97XD) =  -698.486220175     A.U. after    8 cycles
 SCF Done:  E(RwB97XD) =  -698.486220182     A.U. after    7 cycles
 SCF Done:  E(RwB97XD) =  -698.486218925     A.U. after    8 cycles
 SCF Done:  E(RwB97XD) =  -698.486212656     A.U. after    9 cycles
 SCF Done:  E(RwB97XD) =  -698.486212751     A.U. after    9 cycles
 SCF Done:  E(RwB97XD) =  -698.486212381     A.U. after    8 cycles
 SCF Done:  E(RwB97XD) =  -698.486212360     A.U. after    8 cycles
 SCF Done:  E(RwB97XD) =  -698.486209565     A.U. after    9 cycles
 SCF Done:  E(RwB97XD) =  -698.486209567     A.U. after    9 cycles
 SCF Done:  E(RwB97XD) =  -698.486208669     A.U. after    8 cycles
 SCF Done:  E(RwB97XD) =  -698.486208678     A.U. after    8 cycles
 SCF Done:  E(RwB97XD) =  -698.486151996     A.U. after    9 cycles
 SCF Done:  E(RwB97XD) =  -698.486154782     A.U. after    9 cycles

 Alpha  occ. eigenvalues -- -101.70298 -24.85748 -24.85746 -10.53354  -9.60399
 Alpha  occ. eigenvalues --   -7.35105  -7.34065  -7.34055  -1.41756  -1.35404
 Alpha  occ. eigenvalues --   -0.98707  -0.81074  -0.69476  -0.68917  -0.65027
 Alpha  occ. eigenvalues --   -0.56007  -0.54620  -0.53496  -0.47526  -0.42889
 Alpha  occ. eigenvalues --   -0.42712
 Alpha virt. eigenvalues --    0.03313   0.05921   0.07569   0.07611   0.08676
 Alpha virt. eigenvalues --    0.12242   0.13172   0.13438   0.14679   0.16872
 Alpha virt. eigenvalues --    0.17202   0.18503   0.20473   0.22852   0.24196

 Mulliken charges:
               1
     1  C    1.292887
     2  F   -0.572828
     3  Cl  -0.466813
     4  F   -0.572824
     5  H    0.319578
 Sum of Mulliken charges =  -0.00000

 Dipole moment (field-independent basis, Debye):
    X=             -0.0821    Y=             -0.0000    Z=              1.4581  Tot=              1.4604
 Quadrupole moment (field-independent basis, Debye-Ang):
   XX=            -28.9343   YY=            -30.3704   ZZ=            -26.8047
   XY=              0.0000   XZ=             -1.4533   YZ=             -0.0000

  Exact polarizability:      36.944      -0.000      29.040      -1.137      -0.000      27.955
 Approx polarizability:      39.031       0.000      31.784      -1.140      -0.000      30.265

                      1                      2                      3
                      A                      A                      A
 Frequencies --    367.2616               413.6600               597.8047
 Red. masses --     15.9923                19.4656                14.3144
 Frc consts  --      1.2709                 1.9625                 3.0140
 IR Inten    --      0.4040                 0.1276                 6.0166

                      4                      5                      6
                      A                      A                      A
 Frequencies --    812.4300              1130.2295              1151.8237
 Red. masses --      5.3437                10.4349                 7.0668
 Frc consts  --      2.0781                 7.8536                 5.5239
 IR Inten    --    153.2226               234.0568               238.8052

                      7                      8                      9
                      A                      A                      A
 Frequencies --   1319.7335              1368.8164              3170.6428
 Red. masses --      1.1560                 1.1645                 1.0898
 Frc consts  --      1.1862                 1.2856                 6.4547
 IR Inten    --     63.1096                14.9617                 7.3571

 - Thermochemistry -
 -------------------
 Temperature   298.150 Kelvin.  Pressure   1.00000 Atm.
 Atom     1 has atomic number  6 and mass  12.00000

 Molecular mass:    85.97348 amu.
 Principal axes and moments of inertia in atomic units:
                           1         2         3
     Eigenvalues --   176.59690 374.74406 517.77124
           X            0.99994  -0.00000  -0.01102
           Y            0.00000   1.00000  -0.00000
           Z            0.01102   0.00000   0.99994
 This molecule is an asymmetric top.
 Rotational symmetry number  1.
 Rotational temperatures (Kelvin)      0.49046     0.23113     0.16728
 Rotational constants (GHZ):          10.21955     4.81593     3.48560
 Zero-point vibrational energy      61801.5 (Joules/Mol)
                                   14.77091 (Kcal/Mol)
 Warning -- explicit consideration of   3 degrees of freedom as
           vibrations may cause significant error
 Vibrational temperatures:    528.41   595.16   860.11  1168.91  1626.15
          (Kelvin)           1657.22  1898.80  1969.42  4561.85

 Zero-point correction=                           0.023539 (Hartree/Particle)
 Thermal correction to Energy=                    0.027308
 Thermal correction to Enthalpy=                  0.028252
 Thermal correction to Gibbs Free Energy=        -0.003637
 Sum of electronic and zero-point Energies=           -698.462682
 Sum of electronic and thermal Energies=              -698.458914
 Sum of electronic and thermal Enthalpies=            -698.457969
 Sum of electronic and thermal Free Energies=         -698.489858

                     E (Thermal)             CV                S
                      KCal/Mol        Cal/Mol-Kelvin    Cal/Mol-Kelvin
 Total                   17.136             11.359             67.116
 Electronic               0.000              0.000              0.000
 Translational            0.889              2.981             39.268
 Rotational               0.889              2.981             25.042
 Vibrational             15.358              5.397              2.807
 Vibration     1          0.740              1.540              1.091
 Vibration     2          0.777              1.441              0.914
 Vibration     3          0.956              1.036              0.453

 ## DEPERTURBED TRANSITIONS MOMENTS ##

 Electric dipole : Fundamental Bands
 ------------------------------------------------------------------------

 ## AFTER VARIATIONAL CORRECTION

 Electric dipole : Fundamental Bands
 ------------------------------------------------------------------------

 Optimization completed.
    -- Stationary point found.
 Normal termination of Gaussian 16 at Mon Jul 27 15:04:40 2020.
