 Gaussian 16, Revision C.01,
 Gaussian 16:  ES64L-G16RevC.01  3-Jul-2019

 ----------------------------------------------------------------------
 # wB97xD/Gen Freq=(anharmonic,ReadAnharm) Opt=(VeryTight,ZMatrix,CalcA
 ll) Int=UltraFine
 ----------------------------------------------------------------------

 ------------------------------------------
 CFC-115 - F3C-CClF2 ANHARMONIC FREQUENCIES
 ------------------------------------------
 Symbolic Z-matrix:
 Charge =  0 Multiplicity = 1

 SCF Done:  E(RwB97XD) =  -1035.37844779     A.U. after   13 cycles
 SCF Done:  E(RwB97XD) =  -1035.38421576     A.U. after   11 cycles
 SCF Done:  E(RwB97XD) =  -1035.38424305     A.U. after    9 cycles
 SCF Done:  E(RwB97XD) =  -1035.38424308     A.U. after    7 cycles
 SCF Done:  E(RwB97XD) =  -1035.38424308     A.U. after    3 cycles
 SCF Done:  E(RwB97XD) =  -1035.38424308     A.U. after    2 cycles
 SCF Done:  E(RwB97XD) =  -1035.38424308     A.U. after    3 cycles
 SCF Done:  E(RwB97XD) =  -1035.38424308     A.U. after    2 cycles
 SCF Done:  E(RwB97XD) =  -1035.38424308     A.U. after    3 cycles
 SCF Done:  E(RwB97XD) =  -1035.38424308     A.U. after    2 cycles
 Optimization completed.
    -- Stationary point found.
 Normal termination of Gaussian 16 at Mon Jul 27 22:00:58 2020.

 -------------------------------------------------------------------
 #N Geom=AllCheck Guess=TCheck SCRF=Check GenChk RwB97XD/ChkBas Freq
 -------------------------------------------------------------------

 Structure from the checkpoint file:  "checkpoint.chk"
 ------------------------------------------
 CFC-115 - F3C-CClF2 ANHARMONIC FREQUENCIES
 ------------------------------------------
 Charge =  0 Multiplicity = 1

                         Standard orientation:
 ---------------------------------------------------------------------
 Center     Atomic      Atomic             Coordinates (Angstroms)
 Number     Number       Type             X           Y           Z
 ---------------------------------------------------------------------
      1          6           0       -0.944160   -0.227078   -0.000000
      2          6           0        0.446538    0.460519   -0.000000
      3          9           0       -1.086103   -0.982459   -1.083477
      4          9           0       -1.890648    0.708853   -0.000014
      5          9           0       -1.086112   -0.982436    1.083492
      6          9           0        0.537983    1.233553   -1.083659
      7         17           0        1.756930   -0.723542    0.000000
      8          9           0        0.537982    1.233553    1.083659
 ---------------------------------------------------------------------

 SCF Done:  E(RwB97XD) =  -1035.38423405     A.U. after    8 cycles
 SCF Done:  E(RwB97XD) =  -1035.38423438     A.U. after    8 cycles
 SCF Done:  E(RwB97XD) =  -1035.38423318     A.U. after    8 cycles
 SCF Done:  E(RwB97XD) =  -1035.38423318     A.U. after    8 cycles
 SCF Done:  E(RwB97XD) =  -1035.38423272     A.U. after    8 cycles
 SCF Done:  E(RwB97XD) =  -1035.38423245     A.U. after    8 cycles
 SCF Done:  E(RwB97XD) =  -1035.38423235     A.U. after    8 cycles
 SCF Done:  E(RwB97XD) =  -1035.38423235     A.U. after    8 cycles
 SCF Done:  E(RwB97XD) =  -1035.38423031     A.U. after    9 cycles
 SCF Done:  E(RwB97XD) =  -1035.38423034     A.U. after    9 cycles

 Alpha  occ. eigenvalues -- -101.72351 -24.88062 -24.88059 -24.87997 -24.87997
 Alpha  occ. eigenvalues --  -24.87940 -10.59005 -10.56454  -9.62396  -7.37147
 Alpha  occ. eigenvalues --   -7.36044  -7.36034  -1.47705  -1.44094  -1.38627
 Alpha  occ. eigenvalues --   -1.38110  -1.37536  -1.01368  -0.89726  -0.80734
 Alpha  occ. eigenvalues --   -0.75131  -0.74177  -0.73497  -0.70635  -0.67374
 Alpha  occ. eigenvalues --   -0.61279  -0.60256  -0.59935  -0.58428  -0.56779
 Alpha  occ. eigenvalues --   -0.56359  -0.55066  -0.54810  -0.53940  -0.48518
 Alpha  occ. eigenvalues --   -0.44491  -0.44480
 Alpha virt. eigenvalues --    0.04600   0.06119   0.06548   0.07409   0.07541
 Alpha virt. eigenvalues --    0.09929   0.10079   0.10568   0.12272   0.13111
 Alpha virt. eigenvalues --    0.13997   0.15070   0.16558   0.18470   0.20050

 Mulliken charges:
               1
     1  C    2.486120
     2  C    1.460030
     3  F   -0.739273
     4  F   -0.748610
     5  F   -0.739274
     6  F   -0.622402
     7  Cl  -0.474189
     8  F   -0.622402
 Sum of Mulliken charges =  -0.00000

 Dipole moment (field-independent basis, Debye):
    X=              0.3335    Y=             -0.2479    Z=             -0.0000  Tot=              0.4155
 Quadrupole moment (field-independent basis, Debye-Ang):
   XX=            -48.3386   YY=            -49.2201   ZZ=            -49.9101
   XY=             -0.9367   XZ=              0.0000   YZ=              0.0000

  Exact polarizability:      48.604      -4.357      44.501       0.000      -0.000      41.184
 Approx polarizability:      49.233      -5.747      50.376       0.000      -0.000      47.653

                      1                      2                      3
                      A                      A                      A
 Frequencies --     68.2871               181.9607               219.7949
 Red. masses --     20.3252                22.8155                18.6088
 Frc consts  --      0.0558                 0.4451                 0.5297
 IR Inten    --      0.0388                 1.0468                 1.5781

                      4                      5                      6
                      A                      A                      A
 Frequencies --    315.5420               333.4555               364.4447
 Red. masses --     19.4286                20.3035                18.8369
 Frc consts  --      1.1397                 1.3301                 1.4741
 IR Inten    --      1.2047                 0.0002                 0.0279

                      7                      8                      9
                      A                      A                      A
 Frequencies --    442.4942               451.4140               554.7981
 Red. masses --     24.9281                18.2308                18.5356
 Frc consts  --      2.8758                 2.1888                 3.3614
 IR Inten    --      0.1171                 1.1041                 5.8996

                     10                     11                     12
                      A                      A                      A
 Frequencies --    596.4542               651.8280               767.9202
 Red. masses --     17.8793                17.2850                17.3636
 Frc consts  --      3.7476                 4.3270                 6.0328
 IR Inten    --      0.8195                14.1292                31.2777

                     13                     14                     15
                      A                      A                      A
 Frequencies --    986.9045              1145.5497              1210.4909
 Red. masses --     13.4009                13.5928                13.1553
 Frc consts  --      7.6902                10.5096                11.3573
 IR Inten    --    266.5315               198.0672               119.4796

                     16                     17                     18
                      A                      A                      A
 Frequencies --   1246.1683              1260.3448              1374.0522
 Red. masses --     13.1360                13.1940                12.5349
 Frc consts  --     12.0189                12.3483                13.9437
 IR Inten    --    265.1810               342.8078                64.8594

 - Thermochemistry -
 -------------------
 Temperature   298.150 Kelvin.  Pressure   1.00000 Atm.
 Atom     1 has atomic number  6 and mass  12.00000

 Molecular mass:   153.96087 amu.
 Principal axes and moments of inertia in atomic units:
                           1         2         3
     Eigenvalues --   766.804111192.679751322.21895
           X            0.99997  -0.00747   0.00000
           Y            0.00747   0.99997  -0.00000
           Z           -0.00000   0.00000   1.00000
 This molecule is an asymmetric top.
 Rotational symmetry number  1.
 Warning -- assumption of classical behavior for rotation
           may cause significant error
 Rotational temperatures (Kelvin)      0.11295     0.07262     0.06551
 Rotational constants (GHZ):           2.35359     1.51318     1.36493
 Zero-point vibrational energy      72804.2 (Joules/Mol)
                                   17.40061 (Kcal/Mol)
 Warning -- explicit consideration of  10 degrees of freedom as
           vibrations may cause significant error
 Vibrational temperatures:     98.25   261.80   316.24   453.99   479.77
          (Kelvin)            524.35   636.65   649.48   798.23   858.16
                              937.84  1104.87  1419.94  1648.19  1741.63
                             1792.96  1813.36  1976.95

 Zero-point correction=                           0.027730 (Hartree/Particle)
 Thermal correction to Energy=                    0.034820
 Thermal correction to Enthalpy=                  0.035764
 Thermal correction to Gibbs Free Energy=        -0.004725
 Sum of electronic and zero-point Energies=          -1035.356513
 Sum of electronic and thermal Energies=             -1035.349423
 Sum of electronic and thermal Enthalpies=           -1035.348479
 Sum of electronic and thermal Free Energies=        -1035.388969

                     E (Thermal)             CV                S
                      KCal/Mol        Cal/Mol-Kelvin    Cal/Mol-Kelvin
 Total                   21.850             24.231             85.218
 Electronic               0.000              0.000              0.000
 Translational            0.889              2.981             41.004
 Rotational               0.889              2.981             28.582
 Vibrational             20.072             18.270             15.631
 Vibration     1          0.598              1.969              4.202
 Vibration     2          0.630              1.864              2.308
 Vibration     3          0.647              1.811              1.961
 Vibration     4          0.703              1.644              1.333
 Vibration     5          0.715              1.609              1.243
 Vibration     6          0.738              1.545              1.103
 Vibration     7          0.802              1.377              0.819
 Vibration     8          0.810              1.358              0.792
 Vibration     9          0.910              1.129              0.534
 Vibration    10          0.954              1.039              0.456

 ## DEPERTURBED TRANSITIONS MOMENTS ##

 Electric dipole : Fundamental Bands
 ------------------------------------------------------------------------

 ## AFTER VARIATIONAL CORRECTION

 Electric dipole : Fundamental Bands
 ------------------------------------------------------------------------

                       ! Non-Optimized Parameters !
 Normal termination of Gaussian 16 at Tue Jul 28 02:03:17 2020.
