 Gaussian 16, Revision C.01,
 Gaussian 16:  ES64L-G16RevC.01  3-Jul-2019

 ----------------------------------------------------------------------
 # wB97xD/Gen Freq=(anharmonic,ReadAnharm) Opt=(VeryTight,ZMatrix,CalcA
 ll) Int=UltraFine
 ----------------------------------------------------------------------

 -------------------------------------
 CFC-11 - CCl3F ANHARMONIC FREQUENCIES
 -------------------------------------
 Symbolic Z-matrix:
 Charge =  0 Multiplicity = 1

 SCF Done:  E(RwB97XD) =  -1518.46241679     A.U. after   12 cycles
 SCF Done:  E(RwB97XD) =  -1518.46295229     A.U. after   10 cycles
 SCF Done:  E(RwB97XD) =  -1518.46295566     A.U. after    8 cycles
 SCF Done:  E(RwB97XD) =  -1518.46295566     A.U. after    4 cycles
 Optimization completed.
    -- Stationary point found.
 Normal termination of Gaussian 16 at Mon Jul 27 12:38:51 2020.

 -------------------------------------------------------------------
 #N Geom=AllCheck Guess=TCheck SCRF=Check GenChk RwB97XD/ChkBas Freq
 -------------------------------------------------------------------

 Structure from the checkpoint file:  "checkpoint.chk"
 -------------------------------------
 CFC-11 - CCl3F ANHARMONIC FREQUENCIES
 -------------------------------------
 Charge =  0 Multiplicity = 1

                         Standard orientation:
 ---------------------------------------------------------------------
 Center     Atomic      Atomic             Coordinates (Angstroms)
 Number     Number       Type             X           Y           Z
 ---------------------------------------------------------------------
      1          6           0        0.000094    0.000000    0.248069
      2          9           0        0.000094    0.000000    1.584247
      3         17           0        1.683116    0.000020   -0.308895
      4         17           0       -0.841617    1.457599   -0.308689
      5         17           0       -0.841582   -1.457619   -0.308689
 ---------------------------------------------------------------------

 SCF Done:  E(RwB97XD) =  -1518.46295566     A.U. after    1 cycles
 SCF Done:  E(RwB97XD) =  -1518.46295526     A.U. after    7 cycles
 SCF Done:  E(RwB97XD) =  -1518.46295522     A.U. after    7 cycles
 SCF Done:  E(RwB97XD) =  -1518.46295524     A.U. after    7 cycles
 SCF Done:  E(RwB97XD) =  -1518.46295524     A.U. after    7 cycles
 SCF Done:  E(RwB97XD) =  -1518.46295480     A.U. after    8 cycles
 SCF Done:  E(RwB97XD) =  -1518.46295456     A.U. after    8 cycles
 SCF Done:  E(RwB97XD) =  -1518.46295456     A.U. after    8 cycles
 SCF Done:  E(RwB97XD) =  -1518.46295367     A.U. after    8 cycles
 SCF Done:  E(RwB97XD) =  -1518.46295366     A.U. after    8 cycles
 SCF Done:  E(RwB97XD) =  -1518.46295079     A.U. after    9 cycles
 SCF Done:  E(RwB97XD) =  -1518.46295079     A.U. after    9 cycles
 SCF Done:  E(RwB97XD) =  -1518.46295067     A.U. after    9 cycles
 SCF Done:  E(RwB97XD) =  -1518.46295089     A.U. after    9 cycles
 SCF Done:  E(RwB97XD) =  -1518.46294713     A.U. after    9 cycles
 SCF Done:  E(RwB97XD) =  -1518.46294727     A.U. after    9 cycles

 Alpha  occ. eigenvalues -- -101.71996-101.71994-101.71994 -24.87548 -10.56803
 Alpha  occ. eigenvalues --   -9.62033  -9.62032  -9.62030  -7.36819  -7.36818
 Alpha  occ. eigenvalues --   -7.36817  -7.35662  -7.35660  -7.35660  -7.35653
 Alpha  occ. eigenvalues --   -7.35651  -7.35651  -1.40818  -1.05874  -0.96808
 Alpha  occ. eigenvalues --   -0.96806  -0.77656  -0.66048  -0.64830  -0.64830
 Alpha  occ. eigenvalues --   -0.52942  -0.52941  -0.46732  -0.45498  -0.45497
 Alpha  occ. eigenvalues --   -0.42429  -0.42428  -0.40940
 Alpha virt. eigenvalues --    0.00927   0.05854   0.05856   0.05993   0.08401
 Alpha virt. eigenvalues --    0.08402   0.08980   0.12277   0.12424   0.12424
 Alpha virt. eigenvalues --    0.13869   0.13870   0.15657   0.16474   0.16834

 Mulliken charges:
               1
     1  C    0.731036
     2  F   -0.352653
     3  Cl  -0.126102
     4  Cl  -0.126141
     5  Cl  -0.126141
 Sum of Mulliken charges =  -0.00000

 Dipole moment (field-independent basis, Debye):
    X=              0.0006    Y=             -0.0000    Z=             -0.3706  Tot=              0.3706
 Quadrupole moment (field-independent basis, Debye-Ang):
   XX=            -46.8066   YY=            -46.8078   ZZ=            -49.2686
   XY=              0.0000   XZ=             -0.0003   YZ=             -0.0000

  Exact polarizability:      62.028      -0.000      62.031       0.000      -0.000      47.926
 Approx polarizability:      69.014      -0.000      69.013      -0.001      -0.000      58.116

                      1                      2                      3
                      A                      A                      A
 Frequencies --    249.8487               249.8970               356.5572
 Red. masses --     29.8323                29.8416                25.2109
 Frc consts  --      1.0972                 1.0980                 1.8884
 IR Inten    --      0.0330                 0.0374                 0.2062

                      4                      5                      6
                      A                      A                      A
 Frequencies --    403.7146               403.7588               543.3234
 Red. masses --     25.2712                25.2704                22.8257
 Frc consts  --      2.4268                 2.4272                 3.9700
 IR Inten    --      0.0110                 0.0120                 1.6003

                      7                      8                      9
                      A                      A                      A
 Frequencies --    849.2998               849.7298              1119.1136
 Red. masses --     12.8864                12.8879                13.7180
 Frc consts  --      5.4765                 5.4827                10.1225
 IR Inten    --    250.4052               250.3616               179.4934

 - Thermochemistry -
 -------------------
 Temperature   298.150 Kelvin.  Pressure   1.00000 Atm.
 Atom     1 has atomic number  6 and mass  12.00000

 Molecular mass:   135.90496 amu.
 Principal axes and moments of inertia in atomic units:
                           1         2         3
     Eigenvalues --   739.24662 739.272761061.28465
           X            1.00000  -0.00000   0.00009
           Y            0.00000   1.00000   0.00000
           Z           -0.00009  -0.00000   1.00000
 This molecule is an asymmetric top.
 Rotational symmetry number  1.
 Warning -- assumption of classical behavior for rotation
           may cause significant error
 Rotational temperatures (Kelvin)      0.11717     0.11716     0.08161
 Rotational constants (GHZ):           2.44132     2.44124     1.70053
 Zero-point vibrational energy      30057.6 (Joules/Mol)
                                    7.18395 (Kcal/Mol)
 Warning -- explicit consideration of   6 degrees of freedom as
           vibrations may cause significant error
 Vibrational temperatures:    359.48   359.55   513.01   580.86   580.92
          (Kelvin)            781.72  1221.95  1222.57  1610.15

 Zero-point correction=                           0.011448 (Hartree/Particle)
 Thermal correction to Energy=                    0.016567
 Thermal correction to Enthalpy=                  0.017512
 Thermal correction to Gibbs Free Energy=        -0.018570
 Sum of electronic and zero-point Energies=          -1518.451507
 Sum of electronic and thermal Energies=             -1518.446388
 Sum of electronic and thermal Enthalpies=           -1518.445444
 Sum of electronic and thermal Free Energies=        -1518.481526

                     E (Thermal)             CV                S
                      KCal/Mol        Cal/Mol-Kelvin    Cal/Mol-Kelvin
 Total                   10.396             16.537             75.940
 Electronic               0.000              0.000              0.000
 Translational            0.889              2.981             40.632
 Rotational               0.889              2.981             27.852
 Vibrational              8.619             10.575              7.455
 Vibration     1          0.663              1.763              1.732
 Vibration     2          0.663              1.763              1.731
 Vibration     3          0.732              1.562              1.137
 Vibration     4          0.769              1.462              0.949
 Vibration     5          0.769              1.462              0.949
 Vibration     6          0.898              1.154              0.558

 Optimization completed.
    -- Stationary point found.
 Normal termination of Gaussian 16 at Mon Jul 27 13:20:59 2020.
