 Q-Chem 5.2 (devel), Q-Chem, Inc., Pleasanton, CA (2019)
 Q-Chem 5.2.0 for Intel X86 EM64T Linux

User input:
--------------------------------------------------------------
$comment
	QCHEM - Ammonia
	Geometry optimization
	Anharmonic frequency analysis
$end

$molecule
0 1
N         -0.31060        1.49398        0.00912
H          0.70673        1.43731       -0.00479
H         -0.62220        0.78704        0.67357
H         -0.62220        1.17497       -0.90712

$end

$rem
	JOBTYPE	OPT
	METHOD	M06
	BASIS	def2-TZVP
	SCF_CONVERGENCE	7
$end

--------------------------------------------------------------

    9     -56.5402278353      4.02e-08  Convergence criterion met
 Total energy in the final basis set =      -56.5402278353
    7     -56.5403372016      2.52e-08  Convergence criterion met
 Total energy in the final basis set =      -56.5403372016
    6     -56.5403514829      7.03e-08  Convergence criterion met
 Total energy in the final basis set =      -56.5403514829
    5     -56.5403521024      8.05e-08  Convergence criterion met
 Total energy in the final basis set =      -56.5403521024
 Final energy is   -56.5403521024495
 **  OPTIMIZATION CONVERGED  **
 Total job time:  7.10s(wall), 21.91s(cpu)
        *  Thank you very much for using Q-Chem.  Have a nice day.  *

User input: 2 of 2

                  Welcome to Q-Chem
     A Quantum Leap Into The Future Of Chemistry

 Q-Chem 5.2 (devel), Q-Chem, Inc., Pleasanton, CA (2019)

 Yihan Shao,  Zhengting Gan,  E. Epifanovsky,  A. T. B. Gilbert,  M. Wormit,
 J. Kussmann,  A. W. Lange,  A. Behn,  Jia Deng,  Xintian Feng,  D. Ghosh,
 M. Goldey,  P. R. Horn,  L. D. Jacobson,  I. Kaliman,  T. Kus,  A. Landau,
 Jie Liu,  E. I. Proynov,  R. M. Richard,  R. P. Steele,  E. J. Sundstrom,
 H. L. Woodcock III,  P. M. Zimmerman,  D. Zuev,  B. Albrecht,  E. Alguire,
 S. A. Baeppler,  D. Barton,  Z. Benda,  Y. A. Bernard,  E. J. Berquist,
 K. B. Bravaya,  H. Burton,  D. Casanova,  Chun-Min Chang,  Yunqing Chen,
 A. Chien,  K. D. Closser,  M. P. Coons,  S. Coriani,  S. Dasgupta,
 A. L. Dempwolff,  M. Diedenhofen,  Hainam Do,  R. G. Edgar,  Po-Tung Fang,
 S. Faraji,  S. Fatehi,  Qingguo Feng,  K. D. Fenk,  J. Fosso-Tande,
 J. Gayvert,  Qinghui Ge,  A. Ghysels,  G. Gidofalvi,  J. Gomes,
 J. Gonthier,  A. Gunina,  D. Hait,  M. W. D. Hanson-Heine,
 P. H. P. Harbach,  A. W. Hauser,  M. F. Herbst,  J. E. Herr,
 E. G. Hohenstein,  Z. C. Holden,  Kerwin Hui,  B. C. Huynh,  T.-C. Jagau,
 Hyunjun Ji,  B. Kaduk,  K. Khistyaev,  Jaehoon Kim,  P. Klunzinger,  K. Koh,
 D. Kosenkov,  L. Koulias,  T. Kowalczyk,  C. M. Krauter,  A. Kunitsa,
 Ka Un Lao,  A. Laurent,  K. V. Lawler,  Joonho Lee,  D. Lefrancois,
 S. Lehtola,  D. S. Levine,  Yi-Pei Li,  You-Sheng Lin,  Fenglai Liu,
 E. Livshits,  A. Luenser,  P. Manohar,  E. Mansoor,  S. F. Manzer,
 Shan-Ping Mao,  Yuezhi Mao,  N. Mardirossian,  A. V. Marenich,
 T. Markovich,  L. A. Martinez-Martinez,  S. A. Maurer,  N. J. Mayhall,
 S. C. McKenzie,  J.-M. Mewes,  P. Morgante,  A. F. Morrison,
 J. W. Mullinax,  K. Nanda,  T. S. Nguyen-Beck,  R. Olivares-Amaya,
 J. A. Parkhill,  Zheng Pei,  T. M. Perrine,  F. Plasser,  P. Pokhilko,
 S. Prager,  A. Prociuk,  E. Ramos,  D. R. Rehn,  F. Rob,  M. Scheurer,
 M. Schneider,  N. Sergueev,  S. M. Sharada,  S. Sharma,  D. W. Small,
 T. Stauch,  T. Stein,  Yu-Chuan Su,  A. J. W. Thom,  A. Tkatchenko,
 T. Tsuchimochi,  N. M. Tubman,  L. Vogt,  M. L. Vidal,  O. Vydrov,
 M. A. Watson,  J. Wenzel,  M. de Wergifosse,  T. A. Wesolowski,  A. White,
 J. Witte,  A. Yamada,  Jun Yang,  K. Yao,  S. Yeganeh,  S. R. Yost,
 Zhi-Qiang You,  A. Zech,  Igor Ying Zhang,  Xing Zhang,  Yan Zhao,
 Ying Zhu,  B. R. Brooks,  G. K. L. Chan,  C. J. Cramer,  M. S. Gordon,
 W. J. Hehre,  A. Klamt,  M. W. Schmidt,  C. D. Sherrill,  D. G. Truhlar,
 A. Aspuru-Guzik,  R. Baer,  A. T. Bell,  N. A. Besley,  Jeng-Da Chai,
 A. E. DePrince, III,  R. A. DiStasio Jr.,  A. Dreuw,  B. D. Dunietz,
 T. R. Furlani,  Chao-Ping Hsu,  Yousung Jung,  Jing Kong,  D. S. Lambrecht,
 WanZhen Liang,  C. Ochsenfeld,  V. A. Rassolov,  L. V. Slipchenko,
 J. E. Subotnik,  T. Van Voorhis,  J. M. Herbert,  A. I. Krylov,
 P. M. W. Gill,  M. Head-Gordon

 Contributors to earlier versions of Q-Chem not listed above:
 R. D. Adamson,  B. Austin,  J. Baker,  G. J. O. Beran,  K. Brandhorst,
 S. T. Brown,  E. F. C. Byrd,  A. K. Chakraborty,  C.-L. Cheng,
 Siu Hung Chien,  D. M. Chipman,  D. L. Crittenden,  H. Dachsel,
 R. J. Doerksen,  A. D. Dutoi,  L. Fusti-Molnar,  W. A. Goddard III,
 A. Golubeva-Zadorozhnaya,  S. R. Gwaltney,  G. Hawkins,  A. Heyden,
 S. Hirata,  G. Kedziora,  F. J. Keil,  C. Kelley,  Jihan Kim,  R. A. King,
 R. Z. Khaliullin,  P. P. Korambath,  W. Kurlancheek,  A. M. Lee,  M. S. Lee,
 S. V. Levchenko,  Ching Yeh Lin,  D. Liotard,  R. C. Lochan,  I. Lotan,
 P. E. Maslen,  N. Nair,  D. P. O'Neill,  D. Neuhauser,  E. Neuscamman,
 C. M. Oana,  R. Olson,  B. Peters,  R. Peverati,  P. A. Pieniazek,
 Y. M. Rhee,  J. Ritchie,  M. A. Rohrdanz,  E. Rosta,  N. J. Russ,
 H. F. Schaefer III,  N. E. Schultz,  N. Shenvi,  A. C. Simmonett,  A. Sodt,
 D. Stuck,  K. S. Thanthiriwatte,  V. Vanovschi,  Tao Wang,  A. Warshel,
 C. F. Williams,  Q. Wu,  X. Xu,  W. Zhang

 Please cite Q-Chem as follows:
 Y. Shao et al., Mol. Phys. 113, 184-215 (2015)
 DOI: 10.1080/00268976.2014.952696

 Q-Chem 5.2.0 for Intel X86 EM64T Linux

 Parts of Q-Chem use Armadillo 8.300.2 (Tropical Shenanigans).
 http://arma.sourceforge.net/

 Q-Chem begins on Tue Jun 23 12:46:51 2020

Host: gadi-cpu-clx-0263.gadi.nci.org.au
0

     Scratch files written to /jobfs/7626483.gadi-pbs/qchem38409//
NAlpha2: 10
NElect   10
Mult     1
The previous job contains 0 fragments, simply inherited here

Checking the input file for inconsistencies... 	...done.

--------------------------------------------------------------
User input:
--------------------------------------------------------------

$molecule
	READ
$end

$rem
	JOBTYPE	FREQ
	METHOD	M06
	BASIS	def2-TZVP
	ANHAR	TRUE
	SCF_CONVERGENCE	7
	VCI	4
$end
--------------------------------------------------------------

    9     -56.5403473890      3.70e-08  Convergence criterion met
 Total energy in the final basis set =      -56.5403473890
 Frequency:      1015.46                1641.03                1661.61
 Force Cnst:      0.7174                 1.6925                 1.7333
 Red. Mass:       1.1808                 1.0667                 1.0655
 IR Intens:      173.789                 21.076                 20.941
 Frequency:      3474.62                3608.04                3619.18
 Force Cnst:      7.3034                 8.3573                 8.4145
 Red. Mass:       1.0267                 1.0896                 1.0903
 IR Intens:        0.543                  3.886                  4.230
    7     -56.5400990550      3.41e-08  Convergence criterion met
 Total energy in the final basis set =      -56.5400990550
    7     -56.5392858086      3.28e-08  Convergence criterion met
 Total energy in the final basis set =      -56.5392858086
 Total energy in the final basis set =      -56.5368954040
    8     -56.5275114746      3.44e-08  Convergence criterion met
 Total energy in the final basis set =      -56.5275114746
    8     -56.5368764626      2.98e-08  Convergence criterion met
 Total energy in the final basis set =      -56.5368764626
    8     -56.5274977337      2.86e-08  Convergence criterion met
 Total energy in the final basis set =      -56.5274977337
    8     -56.5357193370      4.03e-08  Convergence criterion met
 Total energy in the final basis set =      -56.5357193370
    8     -56.5279620324      3.48e-08  Convergence criterion met
 Total energy in the final basis set =      -56.5279620324
    8     -56.5352339822      3.11e-08  Convergence criterion met
 Total energy in the final basis set =      -56.5352339822
    8     -56.5269362743      3.57e-08  Convergence criterion met
 Total energy in the final basis set =      -56.5269362743

                    Orbital Energies (a.u.)
 --------------------------------------------------------------

 Alpha MOs
 -- Occupied --
-14.3568  -0.8717  -0.4858  -0.4559  -0.2804

          Ground-State Mulliken Net Atomic Charges

     Atom                 Charge (a.u.)
  ----------------------------------------
      1 N                    -0.606087
      2 H                     0.219880
      3 H                     0.185174
      4 H                     0.201032
  ----------------------------------------
  Sum of atomic charges =     0.000000

                    Cartesian Multipole Moments
 -----------------------------------------------------------------
    Charge (ESU x 10^10)
                -0.0000
    Dipole Moment (Debye)
         X       0.0233      Y       0.0263      Z      -1.6946
       Tot       1.6949
    Quadrupole Moments (Debye-Ang)
        XX      -6.0299     XY       0.0147     YY      -6.3081
        XZ      -0.0793     YZ      -0.0535     ZZ      -9.1287

             Standard Nuclear Orientation (Angstroms)
    I     Atom           X                Y                Z
 ----------------------------------------------------------------
    1      N       0.0001312314     0.0001200546     0.1133949422
    2      H       0.9155118085     0.2105602264    -0.2648789753
    3      H      -0.2751535850    -0.8967930639    -0.2643001662
    4      H      -0.6412768434     0.6853924556    -0.2645854538
 ----------------------------------------------------------------

 Frequency:      1015.46                1641.03                1661.61
 Force Cnst:      0.7174                 1.6925                 1.7333
 Red. Mass:       1.1808                 1.0667                 1.0655
 IR Intens:      173.789                 21.076                 20.941
 Frequency:      3474.62                3608.04                3619.18
 Force Cnst:      7.3034                 8.3573                 8.4145
 Red. Mass:       1.0267                 1.0896                 1.0903
 IR Intens:        0.543                  3.886                  4.230

 STANDARD THERMODYNAMIC QUANTITIES FOR ANHARMONIC VIBRATION -- VCI 4

   Zero point vibrational energy:       20.457 kcal/mol

   Vibrational Enthalpy:         20.500 kcal/mol
   Vibrational Entropy:           0.177  cal/mol.K

   Total Enthalpy:               22.870 kcal/mol
   Total Entropy:                48.228  cal/mol.K

 Total job time:  261.40s(wall), 1019.30s(cpu)
        *  Thank you very much for using Q-Chem.  Have a nice day.  *
