 Q-Chem 5.2 (devel), Q-Chem, Inc., Pleasanton, CA (2019)
 Q-Chem 5.2.0 for Intel X86 EM64T Linux

User input:
--------------------------------------------------------------
$comment
	QCHEM - fluoromethane
	Geometry optimization
	Anharmonic frequency analysis
$end

$molecule
0 1
C         -0.48347        1.09831       -0.05476
H          0.60830        1.10236       -0.04160
F         -0.93570        1.47471        1.16770
H         -0.85389        0.09448       -0.27218
H         -0.85389        1.80599       -0.79916

$end

$rem
	JOBTYPE	OPT
	METHOD	M06
	BASIS	def2-TZVP
	SCF_CONVERGENCE	7
$end

--------------------------------------------------------------

   10    -139.7298014489      8.66e-09  Convergence criterion met
 Total energy in the final basis set =     -139.7298014489
    7    -139.7300366048      4.12e-08  Convergence criterion met
 Total energy in the final basis set =     -139.7300366048
    6    -139.7300455403      8.62e-08  Convergence criterion met
 Total energy in the final basis set =     -139.7300455403
 Final energy is   -139.730045540312
 **  OPTIMIZATION CONVERGED  **
 Total job time:  10.29s(wall), 40.39s(cpu)
        *  Thank you very much for using Q-Chem.  Have a nice day.  *

User input: 2 of 2

                  Welcome to Q-Chem
     A Quantum Leap Into The Future Of Chemistry

 Q-Chem 5.2 (devel), Q-Chem, Inc., Pleasanton, CA (2019)

 Yihan Shao,  Zhengting Gan,  E. Epifanovsky,  A. T. B. Gilbert,  M. Wormit,
 J. Kussmann,  A. W. Lange,  A. Behn,  Jia Deng,  Xintian Feng,  D. Ghosh,
 M. Goldey,  P. R. Horn,  L. D. Jacobson,  I. Kaliman,  T. Kus,  A. Landau,
 Jie Liu,  E. I. Proynov,  R. M. Richard,  R. P. Steele,  E. J. Sundstrom,
 H. L. Woodcock III,  P. M. Zimmerman,  D. Zuev,  B. Albrecht,  E. Alguire,
 S. A. Baeppler,  D. Barton,  Z. Benda,  Y. A. Bernard,  E. J. Berquist,
 K. B. Bravaya,  H. Burton,  D. Casanova,  Chun-Min Chang,  Yunqing Chen,
 A. Chien,  K. D. Closser,  M. P. Coons,  S. Coriani,  S. Dasgupta,
 A. L. Dempwolff,  M. Diedenhofen,  Hainam Do,  R. G. Edgar,  Po-Tung Fang,
 S. Faraji,  S. Fatehi,  Qingguo Feng,  K. D. Fenk,  J. Fosso-Tande,
 J. Gayvert,  Qinghui Ge,  A. Ghysels,  G. Gidofalvi,  J. Gomes,
 J. Gonthier,  A. Gunina,  D. Hait,  M. W. D. Hanson-Heine,
 P. H. P. Harbach,  A. W. Hauser,  M. F. Herbst,  J. E. Herr,
 E. G. Hohenstein,  Z. C. Holden,  Kerwin Hui,  B. C. Huynh,  T.-C. Jagau,
 Hyunjun Ji,  B. Kaduk,  K. Khistyaev,  Jaehoon Kim,  P. Klunzinger,  K. Koh,
 D. Kosenkov,  L. Koulias,  T. Kowalczyk,  C. M. Krauter,  A. Kunitsa,
 Ka Un Lao,  A. Laurent,  K. V. Lawler,  Joonho Lee,  D. Lefrancois,
 S. Lehtola,  D. S. Levine,  Yi-Pei Li,  You-Sheng Lin,  Fenglai Liu,
 E. Livshits,  A. Luenser,  P. Manohar,  E. Mansoor,  S. F. Manzer,
 Shan-Ping Mao,  Yuezhi Mao,  N. Mardirossian,  A. V. Marenich,
 T. Markovich,  L. A. Martinez-Martinez,  S. A. Maurer,  N. J. Mayhall,
 S. C. McKenzie,  J.-M. Mewes,  P. Morgante,  A. F. Morrison,
 J. W. Mullinax,  K. Nanda,  T. S. Nguyen-Beck,  R. Olivares-Amaya,
 J. A. Parkhill,  Zheng Pei,  T. M. Perrine,  F. Plasser,  P. Pokhilko,
 S. Prager,  A. Prociuk,  E. Ramos,  D. R. Rehn,  F. Rob,  M. Scheurer,
 M. Schneider,  N. Sergueev,  S. M. Sharada,  S. Sharma,  D. W. Small,
 T. Stauch,  T. Stein,  Yu-Chuan Su,  A. J. W. Thom,  A. Tkatchenko,
 T. Tsuchimochi,  N. M. Tubman,  L. Vogt,  M. L. Vidal,  O. Vydrov,
 M. A. Watson,  J. Wenzel,  M. de Wergifosse,  T. A. Wesolowski,  A. White,
 J. Witte,  A. Yamada,  Jun Yang,  K. Yao,  S. Yeganeh,  S. R. Yost,
 Zhi-Qiang You,  A. Zech,  Igor Ying Zhang,  Xing Zhang,  Yan Zhao,
 Ying Zhu,  B. R. Brooks,  G. K. L. Chan,  C. J. Cramer,  M. S. Gordon,
 W. J. Hehre,  A. Klamt,  M. W. Schmidt,  C. D. Sherrill,  D. G. Truhlar,
 A. Aspuru-Guzik,  R. Baer,  A. T. Bell,  N. A. Besley,  Jeng-Da Chai,
 A. E. DePrince, III,  R. A. DiStasio Jr.,  A. Dreuw,  B. D. Dunietz,
 T. R. Furlani,  Chao-Ping Hsu,  Yousung Jung,  Jing Kong,  D. S. Lambrecht,
 WanZhen Liang,  C. Ochsenfeld,  V. A. Rassolov,  L. V. Slipchenko,
 J. E. Subotnik,  T. Van Voorhis,  J. M. Herbert,  A. I. Krylov,
 P. M. W. Gill,  M. Head-Gordon

 Contributors to earlier versions of Q-Chem not listed above:
 R. D. Adamson,  B. Austin,  J. Baker,  G. J. O. Beran,  K. Brandhorst,
 S. T. Brown,  E. F. C. Byrd,  A. K. Chakraborty,  C.-L. Cheng,
 Siu Hung Chien,  D. M. Chipman,  D. L. Crittenden,  H. Dachsel,
 R. J. Doerksen,  A. D. Dutoi,  L. Fusti-Molnar,  W. A. Goddard III,
 A. Golubeva-Zadorozhnaya,  S. R. Gwaltney,  G. Hawkins,  A. Heyden,
 S. Hirata,  G. Kedziora,  F. J. Keil,  C. Kelley,  Jihan Kim,  R. A. King,
 R. Z. Khaliullin,  P. P. Korambath,  W. Kurlancheek,  A. M. Lee,  M. S. Lee,
 S. V. Levchenko,  Ching Yeh Lin,  D. Liotard,  R. C. Lochan,  I. Lotan,
 P. E. Maslen,  N. Nair,  D. P. O'Neill,  D. Neuhauser,  E. Neuscamman,
 C. M. Oana,  R. Olson,  B. Peters,  R. Peverati,  P. A. Pieniazek,
 Y. M. Rhee,  J. Ritchie,  M. A. Rohrdanz,  E. Rosta,  N. J. Russ,
 H. F. Schaefer III,  N. E. Schultz,  N. Shenvi,  A. C. Simmonett,  A. Sodt,
 D. Stuck,  K. S. Thanthiriwatte,  V. Vanovschi,  Tao Wang,  A. Warshel,
 C. F. Williams,  Q. Wu,  X. Xu,  W. Zhang

 Please cite Q-Chem as follows:
 Y. Shao et al., Mol. Phys. 113, 184-215 (2015)
 DOI: 10.1080/00268976.2014.952696

 Q-Chem 5.2.0 for Intel X86 EM64T Linux

 Parts of Q-Chem use Armadillo 8.300.2 (Tropical Shenanigans).
 http://arma.sourceforge.net/

 Q-Chem begins on Tue Jun 23 13:57:41 2020

Host: gadi-cpu-clx-0263.gadi.nci.org.au
0

     Scratch files written to /jobfs/7626483.gadi-pbs/qchem66650//
NAlpha2: 18
NElect   18
Mult     1
The previous job contains 0 fragments, simply inherited here

Checking the input file for inconsistencies... 	...done.

--------------------------------------------------------------
User input:
--------------------------------------------------------------

$molecule
	READ
$end

$rem
	JOBTYPE	FREQ
	METHOD	M06
	BASIS	def2-TZVP
	ANHAR	TRUE
	SCF_CONVERGENCE	7
	VCI	4
$end
--------------------------------------------------------------

   10    -139.7300352629      8.82e-09  Convergence criterion met
 Total energy in the final basis set =     -139.7300352629
 Frequency:      1119.62                1191.56                1194.94
 Force Cnst:      5.7842                 1.0649                 1.0735
 Red. Mass:       7.8316                 1.2730                 1.2761
 IR Intens:      123.459                  1.394                  1.272
 Frequency:      1460.86                1475.43                1484.26
 Force Cnst:      1.3123                 1.3792                 1.4373
 Red. Mass:       1.0437                 1.0753                 1.1073
 IR Intens:        4.170                  3.963                  3.529
 Frequency:      3014.33                3098.34                3108.28
 Force Cnst:      5.5131                 6.2505                 6.2948
 Red. Mass:       1.0298                 1.1051                 1.1058
 IR Intens:       34.291                 32.633                 31.960
    8    -139.7279659236      5.77e-08  Convergence criterion met
 Total energy in the final basis set =     -139.7279659236
    8    -139.7207481852      5.91e-08  Convergence criterion met
 Total energy in the final basis set =     -139.7207481852
    9    -139.7296753391      9.61e-09  Convergence criterion met
 Total energy in the final basis set =     -139.7296753391
 Total energy in the final basis set =     -139.7274090797
    8    -139.7205292291      5.28e-08  Convergence criterion met
 Total energy in the final basis set =     -139.7205292291
    8    -139.7274083047      6.24e-08  Convergence criterion met
 Total energy in the final basis set =     -139.7274083047
    8    -139.7206017442      5.36e-08  Convergence criterion met
 Total energy in the final basis set =     -139.7206017442
    8    -139.7265209759      7.11e-08  Convergence criterion met
 Total energy in the final basis set =     -139.7265209759
    8    -139.7207018667      5.16e-08  Convergence criterion met
 Total energy in the final basis set =     -139.7207018667
    8    -139.7257725687      8.14e-08  Convergence criterion met
 Total energy in the final basis set =     -139.7257725687
    8    -139.7183193349      5.42e-08  Convergence criterion met
 Total energy in the final basis set =     -139.7183193349

                    Orbital Energies (a.u.)
 --------------------------------------------------------------

 Alpha MOs
 -- Occupied --
-24.7562 -10.3075  -1.2344  -0.7180  -0.5201  -0.5035  -0.4943  -0.3674
 -0.3565

          Ground-State Mulliken Net Atomic Charges

     Atom                 Charge (a.u.)
  ----------------------------------------
      1 C                     0.035245
      2 H                     0.078579
      3 F                    -0.276239
      4 H                     0.075950
      5 H                     0.086465
  ----------------------------------------
  Sum of atomic charges =     0.000000

                    Cartesian Multipole Moments
 -----------------------------------------------------------------
    Charge (ESU x 10^10)
                 0.0000
    Dipole Moment (Debye)
         X       1.7163      Y      -0.0173      Z      -0.0970
       Tot       1.7191
    Quadrupole Moments (Debye-Ang)
        XX     -12.4129     XY      -0.0111     YY     -11.8435
        XZ      -0.0725     YZ      -0.0114     ZZ     -11.8695

             Standard Nuclear Orientation (Angstroms)
    I     Atom           X                Y                Z
 ----------------------------------------------------------------
    1      C       0.6207857877     0.0001201394     0.0000486928
    2      H       0.9916354270     1.0145450467     0.1730039219
    3      F      -0.7438654930     0.0001298242     0.0000798318
    4      H       0.9897525690    -0.6586830655     0.7901268734
    5      H       0.9886867147    -0.3577512356    -0.9641414379
 ----------------------------------------------------------------

 Frequency:      1119.62                1191.56                1194.94
 Force Cnst:      5.7842                 1.0649                 1.0735
 Red. Mass:       7.8316                 1.2730                 1.2761
 IR Intens:      123.459                  1.394                  1.272
 Frequency:      1460.86                1475.43                1484.26
 Force Cnst:      1.3123                 1.3792                 1.4373
 Red. Mass:       1.0437                 1.0753                 1.1073
 IR Intens:        4.170                  3.963                  3.529
 Frequency:      3014.33                3098.34                3108.28
 Force Cnst:      5.5131                 6.2505                 6.2948
 Red. Mass:       1.0298                 1.1051                 1.1058
 IR Intens:       34.291                 32.633                 31.960

 STANDARD THERMODYNAMIC QUANTITIES FOR ANHARMONIC VIBRATION -- VCI 4

   Zero point vibrational energy:       23.615 kcal/mol

   Vibrational Enthalpy:         23.665 kcal/mol
   Vibrational Entropy:           0.200  cal/mol.K

   Total Enthalpy:               26.035 kcal/mol
   Total Entropy:                55.339  cal/mol.K

 Total job time:  1296.73s(wall), 5012.25s(cpu)
        *  Thank you very much for using Q-Chem.  Have a nice day.  *
