 Q-Chem 5.2 (devel), Q-Chem, Inc., Pleasanton, CA (2019)
 Q-Chem 5.2.0 for Intel X86 EM64T Linux

User input:
--------------------------------------------------------------
$comment
	QCHEM - Methanal
	Geometry optimization
	Anharmonic frequency analysis
$end

$molecule
0 1
C         -0.09593        1.46711       -0.00063
O         -0.50414        2.58940        0.27058
H         -0.54473        0.85573       -0.79970
H          0.74465        1.00141        0.53817

$end

$rem
	JOBTYPE	OPT
	METHOD	M06
	BASIS	def2-TZVP
	SCF_CONVERGENCE	7
$end

--------------------------------------------------------------

   10    -114.4824156911      1.53e-08  Convergence criterion met
 Total energy in the final basis set =     -114.4824156911
    9    -114.4833602539      8.28e-09  Convergence criterion met
 Total energy in the final basis set =     -114.4833602539
    8    -114.4842243129      6.35e-08  Convergence criterion met
 Total energy in the final basis set =     -114.4842243129
    7    -114.4842365445      1.52e-08  Convergence criterion met
 Total energy in the final basis set =     -114.4842365445
    6    -114.4842395802      6.81e-08  Convergence criterion met
 Total energy in the final basis set =     -114.4842395802
    6    -114.4842438992      4.91e-08  Convergence criterion met
 Total energy in the final basis set =     -114.4842438992
    6    -114.4842452797      4.37e-08  Convergence criterion met
 Total energy in the final basis set =     -114.4842452797
    6    -114.4842456049      2.26e-08  Convergence criterion met
 **  OPTIMIZATION CONVERGED  **
 Total job time:  21.44s(wall), 83.01s(cpu)
        *  Thank you very much for using Q-Chem.  Have a nice day.  *

User input: 2 of 2

                  Welcome to Q-Chem
     A Quantum Leap Into The Future Of Chemistry

 Q-Chem 5.2 (devel), Q-Chem, Inc., Pleasanton, CA (2019)

 Yihan Shao,  Zhengting Gan,  E. Epifanovsky,  A. T. B. Gilbert,  M. Wormit,
 J. Kussmann,  A. W. Lange,  A. Behn,  Jia Deng,  Xintian Feng,  D. Ghosh,
 M. Goldey,  P. R. Horn,  L. D. Jacobson,  I. Kaliman,  T. Kus,  A. Landau,
 Jie Liu,  E. I. Proynov,  R. M. Richard,  R. P. Steele,  E. J. Sundstrom,
 H. L. Woodcock III,  P. M. Zimmerman,  D. Zuev,  B. Albrecht,  E. Alguire,
 S. A. Baeppler,  D. Barton,  Z. Benda,  Y. A. Bernard,  E. J. Berquist,
 K. B. Bravaya,  H. Burton,  D. Casanova,  Chun-Min Chang,  Yunqing Chen,
 A. Chien,  K. D. Closser,  M. P. Coons,  S. Coriani,  S. Dasgupta,
 A. L. Dempwolff,  M. Diedenhofen,  Hainam Do,  R. G. Edgar,  Po-Tung Fang,
 S. Faraji,  S. Fatehi,  Qingguo Feng,  K. D. Fenk,  J. Fosso-Tande,
 J. Gayvert,  Qinghui Ge,  A. Ghysels,  G. Gidofalvi,  J. Gomes,
 J. Gonthier,  A. Gunina,  D. Hait,  M. W. D. Hanson-Heine,
 P. H. P. Harbach,  A. W. Hauser,  M. F. Herbst,  J. E. Herr,
 E. G. Hohenstein,  Z. C. Holden,  Kerwin Hui,  B. C. Huynh,  T.-C. Jagau,
 Hyunjun Ji,  B. Kaduk,  K. Khistyaev,  Jaehoon Kim,  P. Klunzinger,  K. Koh,
 D. Kosenkov,  L. Koulias,  T. Kowalczyk,  C. M. Krauter,  A. Kunitsa,
 Ka Un Lao,  A. Laurent,  K. V. Lawler,  Joonho Lee,  D. Lefrancois,
 S. Lehtola,  D. S. Levine,  Yi-Pei Li,  You-Sheng Lin,  Fenglai Liu,
 E. Livshits,  A. Luenser,  P. Manohar,  E. Mansoor,  S. F. Manzer,
 Shan-Ping Mao,  Yuezhi Mao,  N. Mardirossian,  A. V. Marenich,
 T. Markovich,  L. A. Martinez-Martinez,  S. A. Maurer,  N. J. Mayhall,
 S. C. McKenzie,  J.-M. Mewes,  P. Morgante,  A. F. Morrison,
 J. W. Mullinax,  K. Nanda,  T. S. Nguyen-Beck,  R. Olivares-Amaya,
 J. A. Parkhill,  Zheng Pei,  T. M. Perrine,  F. Plasser,  P. Pokhilko,
 S. Prager,  A. Prociuk,  E. Ramos,  D. R. Rehn,  F. Rob,  M. Scheurer,
 M. Schneider,  N. Sergueev,  S. M. Sharada,  S. Sharma,  D. W. Small,
 T. Stauch,  T. Stein,  Yu-Chuan Su,  A. J. W. Thom,  A. Tkatchenko,
 T. Tsuchimochi,  N. M. Tubman,  L. Vogt,  M. L. Vidal,  O. Vydrov,
 M. A. Watson,  J. Wenzel,  M. de Wergifosse,  T. A. Wesolowski,  A. White,
 J. Witte,  A. Yamada,  Jun Yang,  K. Yao,  S. Yeganeh,  S. R. Yost,
 Zhi-Qiang You,  A. Zech,  Igor Ying Zhang,  Xing Zhang,  Yan Zhao,
 Ying Zhu,  B. R. Brooks,  G. K. L. Chan,  C. J. Cramer,  M. S. Gordon,
 W. J. Hehre,  A. Klamt,  M. W. Schmidt,  C. D. Sherrill,  D. G. Truhlar,
 A. Aspuru-Guzik,  R. Baer,  A. T. Bell,  N. A. Besley,  Jeng-Da Chai,
 A. E. DePrince, III,  R. A. DiStasio Jr.,  A. Dreuw,  B. D. Dunietz,
 T. R. Furlani,  Chao-Ping Hsu,  Yousung Jung,  Jing Kong,  D. S. Lambrecht,
 WanZhen Liang,  C. Ochsenfeld,  V. A. Rassolov,  L. V. Slipchenko,
 J. E. Subotnik,  T. Van Voorhis,  J. M. Herbert,  A. I. Krylov,
 P. M. W. Gill,  M. Head-Gordon

 Contributors to earlier versions of Q-Chem not listed above:
 R. D. Adamson,  B. Austin,  J. Baker,  G. J. O. Beran,  K. Brandhorst,
 S. T. Brown,  E. F. C. Byrd,  A. K. Chakraborty,  C.-L. Cheng,
 Siu Hung Chien,  D. M. Chipman,  D. L. Crittenden,  H. Dachsel,
 R. J. Doerksen,  A. D. Dutoi,  L. Fusti-Molnar,  W. A. Goddard III,
 A. Golubeva-Zadorozhnaya,  S. R. Gwaltney,  G. Hawkins,  A. Heyden,
 S. Hirata,  G. Kedziora,  F. J. Keil,  C. Kelley,  Jihan Kim,  R. A. King,
 R. Z. Khaliullin,  P. P. Korambath,  W. Kurlancheek,  A. M. Lee,  M. S. Lee,
 S. V. Levchenko,  Ching Yeh Lin,  D. Liotard,  R. C. Lochan,  I. Lotan,
 P. E. Maslen,  N. Nair,  D. P. O'Neill,  D. Neuhauser,  E. Neuscamman,
 C. M. Oana,  R. Olson,  B. Peters,  R. Peverati,  P. A. Pieniazek,
 Y. M. Rhee,  J. Ritchie,  M. A. Rohrdanz,  E. Rosta,  N. J. Russ,
 H. F. Schaefer III,  N. E. Schultz,  N. Shenvi,  A. C. Simmonett,  A. Sodt,
 D. Stuck,  K. S. Thanthiriwatte,  V. Vanovschi,  Tao Wang,  A. Warshel,
 C. F. Williams,  Q. Wu,  X. Xu,  W. Zhang

 Please cite Q-Chem as follows:
 Y. Shao et al., Mol. Phys. 113, 184-215 (2015)
 DOI: 10.1080/00268976.2014.952696

 Q-Chem 5.2.0 for Intel X86 EM64T Linux

 Parts of Q-Chem use Armadillo 8.300.2 (Tropical Shenanigans).
 http://arma.sourceforge.net/

 Q-Chem begins on Tue Jun 23 13:44:24 2020

Host: gadi-cpu-clx-0263.gadi.nci.org.au
0

     Scratch files written to /jobfs/7626483.gadi-pbs/qchem64480//
NAlpha2: 16
NElect   16
Mult     1
The previous job contains 0 fragments, simply inherited here

Checking the input file for inconsistencies... 	...done.

--------------------------------------------------------------
User input:
--------------------------------------------------------------

$molecule
	READ
$end

$rem
	JOBTYPE	FREQ
	METHOD	M06
	BASIS	def2-TZVP
	ANHAR	TRUE
	SCF_CONVERGENCE	7
	VCI	4
$end
--------------------------------------------------------------

 Frequency:      1200.71                1260.30                1528.61
 Force Cnst:      1.1690                 1.2707                 1.5013
 Red. Mass:       1.3762                 1.3579                 1.0905
 IR Intens:        1.131                 15.536                  7.053
 Frequency:      1875.94                2850.95                2904.91
 Force Cnst:     16.4981                 5.0179                 5.5508
 Red. Mass:       7.9569                 1.0478                 1.1164
 IR Intens:      128.064                 68.455                130.927
 Total energy in the final basis set =     -114.4820591501
    8    -114.4766293498      7.21e-08  Convergence criterion met
 Total energy in the final basis set =     -114.4766293498
    8    -114.4820101367      7.40e-08  Convergence criterion met
 Total energy in the final basis set =     -114.4820101367
    8    -114.4766499341      6.99e-08  Convergence criterion met
 Total energy in the final basis set =     -114.4766499341
    9    -114.4776883711      2.41e-08  Convergence criterion met
 Total energy in the final basis set =     -114.4776883711
    8    -114.4720585445      7.30e-08  Convergence criterion met
 Total energy in the final basis set =     -114.4720585445
    9    -114.4813573603      3.51e-08  Convergence criterion met
 Total energy in the final basis set =     -114.4813573603
    8    -114.4770378655      6.64e-08  Convergence criterion met
 Total energy in the final basis set =     -114.4770378655

                    Orbital Energies (a.u.)
 --------------------------------------------------------------

 Alpha MOs
 -- Occupied --
-19.2329 -10.3457  -1.0975  -0.6435  -0.5077  -0.4739  -0.4313  -0.2885

          Ground-State Mulliken Net Atomic Charges

     Atom                 Charge (a.u.)
  ----------------------------------------
      1 C                     0.175110
      2 O                    -0.289875
      3 H                     0.045626
      4 H                     0.069139
  ----------------------------------------
  Sum of atomic charges =     0.000000

                    Cartesian Multipole Moments
 -----------------------------------------------------------------
    Charge (ESU x 10^10)
                 0.0000
    Dipole Moment (Debye)
         X      -0.2116      Y       0.0000      Z       2.1331
       Tot       2.1436
    Quadrupole Moments (Debye-Ang)
        XX     -11.7239     XY      -0.0000     YY     -11.5539
        XZ      -0.2317     YZ       0.0000     ZZ     -12.3162

             Standard Nuclear Orientation (Angstroms)
    I     Atom           X                Y                Z
 ----------------------------------------------------------------
    1      C       0.0000000000     0.0000000000     0.5201447933
    2      O       0.0000000000     0.0000000000    -0.6700331089
    3      H       0.9366620905    -0.0000000000     1.1196984911
    4      H      -0.9366620905     0.0000000000     1.1196984911
 ----------------------------------------------------------------

 Frequency:      1200.71                1260.30                1528.61
 Force Cnst:      1.1690                 1.2707                 1.5013
 Red. Mass:       1.3762                 1.3579                 1.0905
 IR Intens:        1.131                 15.536                  7.053
 Frequency:      1875.94                2850.95                2904.91
 Force Cnst:     16.4981                 5.0179                 5.5508
 Red. Mass:       7.9569                 1.0478                 1.1164
 IR Intens:      128.064                 68.455                130.927

 STANDARD THERMODYNAMIC QUANTITIES FOR ANHARMONIC VIBRATION -- VCI 4

   Zero point vibrational energy:       16.211 kcal/mol

   Vibrational Enthalpy:         16.235 kcal/mol
   Vibrational Entropy:           0.091  cal/mol.K

   Total Enthalpy:               18.605 kcal/mol
   Total Entropy:                52.200  cal/mol.K

 Total job time:  468.76s(wall), 1807.79s(cpu)
        *  Thank you very much for using Q-Chem.  Have a nice day.  *
