 Q-Chem 5.2 (devel), Q-Chem, Inc., Pleasanton, CA (2019)
 Q-Chem 5.2.0 for Intel X86 EM64T Linux

User input:
--------------------------------------------------------------
$comment
	QCHEM - phosphorous trifluoride
	Geometry optimization
	Anharmonic frequency analysis
$end

$molecule
0 1
P         -0.53161        2.14075       -0.22716
F          1.00710        1.97419        0.06484
F         -0.88604        2.64957        1.22063
F         -0.88604        0.63556        0.07185

$end

$rem
	JOBTYPE	OPT
	METHOD	M06
	BASIS	def2-TZVP
	SCF_CONVERGENCE	7
$end

--------------------------------------------------------------

   10    -641.0086575134      4.28e-08  Convergence criterion met
 Total energy in the final basis set =     -641.0086575134
    9    -641.0092161332      1.06e-08  Convergence criterion met
 Total energy in the final basis set =     -641.0092161332
    8    -641.0101092853      5.23e-08  Convergence criterion met
 Total energy in the final basis set =     -641.0101092853
    6    -641.0101197540      9.94e-08  Convergence criterion met
 Total energy in the final basis set =     -641.0101197540
    6    -641.0101205465      5.32e-08  Convergence criterion met
 Total energy in the final basis set =     -641.0101205465
 Final energy is   -641.010120546545
 **  OPTIMIZATION CONVERGED  **
 Total job time:  34.52s(wall), 135.85s(cpu)
        *  Thank you very much for using Q-Chem.  Have a nice day.  *

User input: 2 of 2

                  Welcome to Q-Chem
     A Quantum Leap Into The Future Of Chemistry

 Q-Chem 5.2 (devel), Q-Chem, Inc., Pleasanton, CA (2019)

 Yihan Shao,  Zhengting Gan,  E. Epifanovsky,  A. T. B. Gilbert,  M. Wormit,
 J. Kussmann,  A. W. Lange,  A. Behn,  Jia Deng,  Xintian Feng,  D. Ghosh,
 M. Goldey,  P. R. Horn,  L. D. Jacobson,  I. Kaliman,  T. Kus,  A. Landau,
 Jie Liu,  E. I. Proynov,  R. M. Richard,  R. P. Steele,  E. J. Sundstrom,
 H. L. Woodcock III,  P. M. Zimmerman,  D. Zuev,  B. Albrecht,  E. Alguire,
 S. A. Baeppler,  D. Barton,  Z. Benda,  Y. A. Bernard,  E. J. Berquist,
 K. B. Bravaya,  H. Burton,  D. Casanova,  Chun-Min Chang,  Yunqing Chen,
 A. Chien,  K. D. Closser,  M. P. Coons,  S. Coriani,  S. Dasgupta,
 A. L. Dempwolff,  M. Diedenhofen,  Hainam Do,  R. G. Edgar,  Po-Tung Fang,
 S. Faraji,  S. Fatehi,  Qingguo Feng,  K. D. Fenk,  J. Fosso-Tande,
 J. Gayvert,  Qinghui Ge,  A. Ghysels,  G. Gidofalvi,  J. Gomes,
 J. Gonthier,  A. Gunina,  D. Hait,  M. W. D. Hanson-Heine,
 P. H. P. Harbach,  A. W. Hauser,  M. F. Herbst,  J. E. Herr,
 E. G. Hohenstein,  Z. C. Holden,  Kerwin Hui,  B. C. Huynh,  T.-C. Jagau,
 Hyunjun Ji,  B. Kaduk,  K. Khistyaev,  Jaehoon Kim,  P. Klunzinger,  K. Koh,
 D. Kosenkov,  L. Koulias,  T. Kowalczyk,  C. M. Krauter,  A. Kunitsa,
 Ka Un Lao,  A. Laurent,  K. V. Lawler,  Joonho Lee,  D. Lefrancois,
 S. Lehtola,  D. S. Levine,  Yi-Pei Li,  You-Sheng Lin,  Fenglai Liu,
 E. Livshits,  A. Luenser,  P. Manohar,  E. Mansoor,  S. F. Manzer,
 Shan-Ping Mao,  Yuezhi Mao,  N. Mardirossian,  A. V. Marenich,
 T. Markovich,  L. A. Martinez-Martinez,  S. A. Maurer,  N. J. Mayhall,
 S. C. McKenzie,  J.-M. Mewes,  P. Morgante,  A. F. Morrison,
 J. W. Mullinax,  K. Nanda,  T. S. Nguyen-Beck,  R. Olivares-Amaya,
 J. A. Parkhill,  Zheng Pei,  T. M. Perrine,  F. Plasser,  P. Pokhilko,
 S. Prager,  A. Prociuk,  E. Ramos,  D. R. Rehn,  F. Rob,  M. Scheurer,
 M. Schneider,  N. Sergueev,  S. M. Sharada,  S. Sharma,  D. W. Small,
 T. Stauch,  T. Stein,  Yu-Chuan Su,  A. J. W. Thom,  A. Tkatchenko,
 T. Tsuchimochi,  N. M. Tubman,  L. Vogt,  M. L. Vidal,  O. Vydrov,
 M. A. Watson,  J. Wenzel,  M. de Wergifosse,  T. A. Wesolowski,  A. White,
 J. Witte,  A. Yamada,  Jun Yang,  K. Yao,  S. Yeganeh,  S. R. Yost,
 Zhi-Qiang You,  A. Zech,  Igor Ying Zhang,  Xing Zhang,  Yan Zhao,
 Ying Zhu,  B. R. Brooks,  G. K. L. Chan,  C. J. Cramer,  M. S. Gordon,
 W. J. Hehre,  A. Klamt,  M. W. Schmidt,  C. D. Sherrill,  D. G. Truhlar,
 A. Aspuru-Guzik,  R. Baer,  A. T. Bell,  N. A. Besley,  Jeng-Da Chai,
 A. E. DePrince, III,  R. A. DiStasio Jr.,  A. Dreuw,  B. D. Dunietz,
 T. R. Furlani,  Chao-Ping Hsu,  Yousung Jung,  Jing Kong,  D. S. Lambrecht,
 WanZhen Liang,  C. Ochsenfeld,  V. A. Rassolov,  L. V. Slipchenko,
 J. E. Subotnik,  T. Van Voorhis,  J. M. Herbert,  A. I. Krylov,
 P. M. W. Gill,  M. Head-Gordon

 Contributors to earlier versions of Q-Chem not listed above:
 R. D. Adamson,  B. Austin,  J. Baker,  G. J. O. Beran,  K. Brandhorst,
 S. T. Brown,  E. F. C. Byrd,  A. K. Chakraborty,  C.-L. Cheng,
 Siu Hung Chien,  D. M. Chipman,  D. L. Crittenden,  H. Dachsel,
 R. J. Doerksen,  A. D. Dutoi,  L. Fusti-Molnar,  W. A. Goddard III,
 A. Golubeva-Zadorozhnaya,  S. R. Gwaltney,  G. Hawkins,  A. Heyden,
 S. Hirata,  G. Kedziora,  F. J. Keil,  C. Kelley,  Jihan Kim,  R. A. King,
 R. Z. Khaliullin,  P. P. Korambath,  W. Kurlancheek,  A. M. Lee,  M. S. Lee,
 S. V. Levchenko,  Ching Yeh Lin,  D. Liotard,  R. C. Lochan,  I. Lotan,
 P. E. Maslen,  N. Nair,  D. P. O'Neill,  D. Neuhauser,  E. Neuscamman,
 C. M. Oana,  R. Olson,  B. Peters,  R. Peverati,  P. A. Pieniazek,
 Y. M. Rhee,  J. Ritchie,  M. A. Rohrdanz,  E. Rosta,  N. J. Russ,
 H. F. Schaefer III,  N. E. Schultz,  N. Shenvi,  A. C. Simmonett,  A. Sodt,
 D. Stuck,  K. S. Thanthiriwatte,  V. Vanovschi,  Tao Wang,  A. Warshel,
 C. F. Williams,  Q. Wu,  X. Xu,  W. Zhang

 Please cite Q-Chem as follows:
 Y. Shao et al., Mol. Phys. 113, 184-215 (2015)
 DOI: 10.1080/00268976.2014.952696

 Q-Chem 5.2.0 for Intel X86 EM64T Linux

 Parts of Q-Chem use Armadillo 8.300.2 (Tropical Shenanigans).
 http://arma.sourceforge.net/

 Q-Chem begins on Wed Jun 24 07:27:17 2020

Host: gadi-cpu-clx-0263.gadi.nci.org.au
0

     Scratch files written to /jobfs/7626483.gadi-pbs/qchem67151//
NAlpha2: 42
NElect   42
Mult     1
The previous job contains 0 fragments, simply inherited here

Checking the input file for inconsistencies... 	...done.

--------------------------------------------------------------
User input:
--------------------------------------------------------------

$molecule
	READ
$end

$rem
	JOBTYPE	FREQ
	METHOD	M06
	BASIS	def2-TZVP
	ANHAR	TRUE
	SCF_CONVERGENCE	7
	VCI	4
$end
--------------------------------------------------------------

   10    -641.0101226315      3.92e-08  Convergence criterion met
 Total energy in the final basis set =     -641.0101226315
 Frequency:       347.06                 349.40                 489.73
 Force Cnst:      1.4061                 1.4252                 2.9856
 Red. Mass:      19.8128                19.8146                21.1287
 IR Intens:        4.768                  4.925                 28.221
 Frequency:       870.97                 871.85                 908.88
 Force Cnst:     10.1343                10.1570                10.8742
 Red. Mass:      22.6744                22.6794                22.3426
 IR Intens:      206.703                207.574                149.854
    8    -641.0096733010      4.64e-08  Convergence criterion met
 Total energy in the final basis set =     -641.0096733010
 Total energy in the final basis set =     -641.0059751491
    9    -640.9938897292      1.08e-08  Convergence criterion met
 Total energy in the final basis set =     -640.9938897292
    8    -641.0056401371      9.78e-08  Convergence criterion met
 Total energy in the final basis set =     -641.0056401371
    9    -640.9940620731      1.13e-08  Convergence criterion met
 Total energy in the final basis set =     -640.9940620731
   10    -641.0024873259      2.08e-08  Convergence criterion met
 Total energy in the final basis set =     -641.0024873259
    8    -640.9892266605      9.90e-08  Convergence criterion met
 Total energy in the final basis set =     -640.9892266605
   10    -641.0022541304      1.93e-08  Convergence criterion met
 Total energy in the final basis set =     -641.0022541304
    8    -640.9889619890      9.95e-08  Convergence criterion met
 Total energy in the final basis set =     -640.9889619890

                    Orbital Energies (a.u.)
 --------------------------------------------------------------

 Alpha MOs
 -- Occupied --
-77.3448 -24.8381 -24.8182 -24.8041  -6.7620  -4.8839  -4.8833  -4.8746
 -1.3720  -1.3094  -1.2793  -0.7083  -0.6163  -0.6076  -0.5830  -0.5419
 -0.5327  -0.5002  -0.4822  -0.4694  -0.3013

          Ground-State Mulliken Net Atomic Charges

     Atom                 Charge (a.u.)
  ----------------------------------------
      1 P                     0.597845
      2 F                    -0.206238
      3 F                    -0.144915
      4 F                    -0.246691
  ----------------------------------------
  Sum of atomic charges =     0.000000

                    Cartesian Multipole Moments
 -----------------------------------------------------------------
    Charge (ESU x 10^10)
                -0.0000
    Dipole Moment (Debye)
         X       0.5407      Y      -0.0383      Z      -0.1239
       Tot       0.5560
    Quadrupole Moments (Debye-Ang)
        XX     -26.7356     XY       0.3050     YY     -27.0089
        XZ       0.1455     YZ      -0.0151     ZZ     -27.3460

             Standard Nuclear Orientation (Angstroms)
    I     Atom           X                Y                Z
 ----------------------------------------------------------------
    1      P      -0.0001360189     0.0008781247    -0.5011992297
    2      F      -0.2279583953    -1.3393332168     0.2779063462
    3      F       1.2752045825     0.4717303493     0.2785575461
    4      F      -1.0470194891     0.8661393263     0.2788681572
 ----------------------------------------------------------------

 Frequency:       347.06                 349.40                 489.73
 Force Cnst:      1.4061                 1.4252                 2.9856
 Red. Mass:      19.8128                19.8146                21.1287
 IR Intens:        4.768                  4.925                 28.221
 Frequency:       870.97                 871.85                 908.88
 Force Cnst:     10.1343                10.1570                10.8742
 Red. Mass:      22.6744                22.6794                22.3426
 IR Intens:      206.703                207.574                149.854

 STANDARD THERMODYNAMIC QUANTITIES FOR ANHARMONIC VIBRATION -- VCI 4

   Zero point vibrational energy:        5.415 kcal/mol

   Vibrational Enthalpy:          6.137 kcal/mol
   Vibrational Entropy:           3.548  cal/mol.K

   Total Enthalpy:                8.507 kcal/mol
   Total Entropy:                67.398  cal/mol.K

 Total job time:  1278.02s(wall), 5073.61s(cpu)
        *  Thank you very much for using Q-Chem.  Have a nice day.  *
