 Q-Chem 5.2 (devel), Q-Chem, Inc., Pleasanton, CA (2019)
 Q-Chem 5.2.0 for Intel X86 EM64T Linux

User input:
--------------------------------------------------------------
$comment
	QCHEM - Phosphine
	Geometry optimization
	Anharmonic frequency analysis
$end

$molecule
0 1
P         -0.06619        1.22605       -0.15895
H          1.31493        1.03098        0.07917
H         -0.38145        1.45450        1.20144
H         -0.38145       -0.15269       -0.11518

$end

$rem
	JOBTYPE	OPT
	METHOD	M06
	BASIS	def2-TZVP
	SCF_CONVERGENCE	7
$end

--------------------------------------------------------------

    9    -343.1232681114      2.61e-08  Convergence criterion met
 Total energy in the final basis set =     -343.1232681114
    6    -343.1233704247      5.57e-08  Convergence criterion met
 Total energy in the final basis set =     -343.1233704247
    6    -343.1233723328      4.70e-08  Convergence criterion met
 Total energy in the final basis set =     -343.1233723328
 Final energy is   -343.123372332832
 **  OPTIMIZATION CONVERGED  **
 Total job time:  5.79s(wall), 22.42s(cpu)
        *  Thank you very much for using Q-Chem.  Have a nice day.  *

User input: 2 of 2

                  Welcome to Q-Chem
     A Quantum Leap Into The Future Of Chemistry

 Q-Chem 5.2 (devel), Q-Chem, Inc., Pleasanton, CA (2019)

 Yihan Shao,  Zhengting Gan,  E. Epifanovsky,  A. T. B. Gilbert,  M. Wormit,
 J. Kussmann,  A. W. Lange,  A. Behn,  Jia Deng,  Xintian Feng,  D. Ghosh,
 M. Goldey,  P. R. Horn,  L. D. Jacobson,  I. Kaliman,  T. Kus,  A. Landau,
 Jie Liu,  E. I. Proynov,  R. M. Richard,  R. P. Steele,  E. J. Sundstrom,
 H. L. Woodcock III,  P. M. Zimmerman,  D. Zuev,  B. Albrecht,  E. Alguire,
 S. A. Baeppler,  D. Barton,  Z. Benda,  Y. A. Bernard,  E. J. Berquist,
 K. B. Bravaya,  H. Burton,  D. Casanova,  Chun-Min Chang,  Yunqing Chen,
 A. Chien,  K. D. Closser,  M. P. Coons,  S. Coriani,  S. Dasgupta,
 A. L. Dempwolff,  M. Diedenhofen,  Hainam Do,  R. G. Edgar,  Po-Tung Fang,
 S. Faraji,  S. Fatehi,  Qingguo Feng,  K. D. Fenk,  J. Fosso-Tande,
 J. Gayvert,  Qinghui Ge,  A. Ghysels,  G. Gidofalvi,  J. Gomes,
 J. Gonthier,  A. Gunina,  D. Hait,  M. W. D. Hanson-Heine,
 P. H. P. Harbach,  A. W. Hauser,  M. F. Herbst,  J. E. Herr,
 E. G. Hohenstein,  Z. C. Holden,  Kerwin Hui,  B. C. Huynh,  T.-C. Jagau,
 Hyunjun Ji,  B. Kaduk,  K. Khistyaev,  Jaehoon Kim,  P. Klunzinger,  K. Koh,
 D. Kosenkov,  L. Koulias,  T. Kowalczyk,  C. M. Krauter,  A. Kunitsa,
 Ka Un Lao,  A. Laurent,  K. V. Lawler,  Joonho Lee,  D. Lefrancois,
 S. Lehtola,  D. S. Levine,  Yi-Pei Li,  You-Sheng Lin,  Fenglai Liu,
 E. Livshits,  A. Luenser,  P. Manohar,  E. Mansoor,  S. F. Manzer,
 Shan-Ping Mao,  Yuezhi Mao,  N. Mardirossian,  A. V. Marenich,
 T. Markovich,  L. A. Martinez-Martinez,  S. A. Maurer,  N. J. Mayhall,
 S. C. McKenzie,  J.-M. Mewes,  P. Morgante,  A. F. Morrison,
 J. W. Mullinax,  K. Nanda,  T. S. Nguyen-Beck,  R. Olivares-Amaya,
 J. A. Parkhill,  Zheng Pei,  T. M. Perrine,  F. Plasser,  P. Pokhilko,
 S. Prager,  A. Prociuk,  E. Ramos,  D. R. Rehn,  F. Rob,  M. Scheurer,
 M. Schneider,  N. Sergueev,  S. M. Sharada,  S. Sharma,  D. W. Small,
 T. Stauch,  T. Stein,  Yu-Chuan Su,  A. J. W. Thom,  A. Tkatchenko,
 T. Tsuchimochi,  N. M. Tubman,  L. Vogt,  M. L. Vidal,  O. Vydrov,
 M. A. Watson,  J. Wenzel,  M. de Wergifosse,  T. A. Wesolowski,  A. White,
 J. Witte,  A. Yamada,  Jun Yang,  K. Yao,  S. Yeganeh,  S. R. Yost,
 Zhi-Qiang You,  A. Zech,  Igor Ying Zhang,  Xing Zhang,  Yan Zhao,
 Ying Zhu,  B. R. Brooks,  G. K. L. Chan,  C. J. Cramer,  M. S. Gordon,
 W. J. Hehre,  A. Klamt,  M. W. Schmidt,  C. D. Sherrill,  D. G. Truhlar,
 A. Aspuru-Guzik,  R. Baer,  A. T. Bell,  N. A. Besley,  Jeng-Da Chai,
 A. E. DePrince, III,  R. A. DiStasio Jr.,  A. Dreuw,  B. D. Dunietz,
 T. R. Furlani,  Chao-Ping Hsu,  Yousung Jung,  Jing Kong,  D. S. Lambrecht,
 WanZhen Liang,  C. Ochsenfeld,  V. A. Rassolov,  L. V. Slipchenko,
 J. E. Subotnik,  T. Van Voorhis,  J. M. Herbert,  A. I. Krylov,
 P. M. W. Gill,  M. Head-Gordon

 Contributors to earlier versions of Q-Chem not listed above:
 R. D. Adamson,  B. Austin,  J. Baker,  G. J. O. Beran,  K. Brandhorst,
 S. T. Brown,  E. F. C. Byrd,  A. K. Chakraborty,  C.-L. Cheng,
 Siu Hung Chien,  D. M. Chipman,  D. L. Crittenden,  H. Dachsel,
 R. J. Doerksen,  A. D. Dutoi,  L. Fusti-Molnar,  W. A. Goddard III,
 A. Golubeva-Zadorozhnaya,  S. R. Gwaltney,  G. Hawkins,  A. Heyden,
 S. Hirata,  G. Kedziora,  F. J. Keil,  C. Kelley,  Jihan Kim,  R. A. King,
 R. Z. Khaliullin,  P. P. Korambath,  W. Kurlancheek,  A. M. Lee,  M. S. Lee,
 S. V. Levchenko,  Ching Yeh Lin,  D. Liotard,  R. C. Lochan,  I. Lotan,
 P. E. Maslen,  N. Nair,  D. P. O'Neill,  D. Neuhauser,  E. Neuscamman,
 C. M. Oana,  R. Olson,  B. Peters,  R. Peverati,  P. A. Pieniazek,
 Y. M. Rhee,  J. Ritchie,  M. A. Rohrdanz,  E. Rosta,  N. J. Russ,
 H. F. Schaefer III,  N. E. Schultz,  N. Shenvi,  A. C. Simmonett,  A. Sodt,
 D. Stuck,  K. S. Thanthiriwatte,  V. Vanovschi,  Tao Wang,  A. Warshel,
 C. F. Williams,  Q. Wu,  X. Xu,  W. Zhang

 Please cite Q-Chem as follows:
 Y. Shao et al., Mol. Phys. 113, 184-215 (2015)
 DOI: 10.1080/00268976.2014.952696

 Q-Chem 5.2.0 for Intel X86 EM64T Linux

 Parts of Q-Chem use Armadillo 8.300.2 (Tropical Shenanigans).
 http://arma.sourceforge.net/

 Q-Chem begins on Tue Jun 23 13:52:19 2020

Host: gadi-cpu-clx-0263.gadi.nci.org.au
0

     Scratch files written to /jobfs/7626483.gadi-pbs/qchem65701//
NAlpha2: 18
NElect   18
Mult     1
The previous job contains 0 fragments, simply inherited here

Checking the input file for inconsistencies... 	...done.

--------------------------------------------------------------
User input:
--------------------------------------------------------------

$molecule
	READ
$end

$rem
	JOBTYPE	FREQ
	METHOD	M06
	BASIS	def2-TZVP
	ANHAR	TRUE
	SCF_CONVERGENCE	7
	VCI	4
$end
--------------------------------------------------------------

    9    -343.1233767501      2.67e-08  Convergence criterion met
 Total energy in the final basis set =     -343.1233767501
 Frequency:      1034.93                1139.86                1143.70
 Force Cnst:      0.6785                 0.7849                 0.7902
 Red. Mass:       1.0752                 1.0253                 1.0253
 IR Intens:       17.724                  8.671                  8.707
 Frequency:      2408.08                2415.52                2416.59
 Force Cnst:      3.5261                 3.5779                 3.5814
 Red. Mass:       1.0320                 1.0408                 1.0409
 IR Intens:       32.069                 59.388                 59.643
    7    -343.1231597535      4.24e-08  Convergence criterion met
 Total energy in the final basis set =     -343.1231597535
    7    -343.1225216012      4.89e-08  Convergence criterion met
 Total energy in the final basis set =     -343.1225216012
    7    -343.1231221657      8.71e-08  Convergence criterion met
 Total energy in the final basis set =     -343.1231221657
 Total energy in the final basis set =     -343.1219358475
    8    -343.1181674151      3.86e-08  Convergence criterion met
 Total energy in the final basis set =     -343.1181674151
    8    -343.1219315364      3.64e-08  Convergence criterion met
 Total energy in the final basis set =     -343.1219315364
    8    -343.1181722606      3.85e-08  Convergence criterion met
 Total energy in the final basis set =     -343.1181722606
    8    -343.1208274998      3.96e-08  Convergence criterion met
 Total energy in the final basis set =     -343.1208274998
    8    -343.1165194319      3.65e-08  Convergence criterion met
 Total energy in the final basis set =     -343.1165194319
    9    -343.1210073989      8.00e-09  Convergence criterion met
 Total energy in the final basis set =     -343.1210073989
    8    -343.1169714704      3.75e-08  Convergence criterion met
 Total energy in the final basis set =     -343.1169714704

                    Orbital Energies (a.u.)
 --------------------------------------------------------------

 Alpha MOs
 -- Occupied --
-77.2175  -6.6485  -4.7679  -4.7676  -4.7635  -0.6608  -0.4020  -0.3854
 -0.2862

          Ground-State Mulliken Net Atomic Charges

     Atom                 Charge (a.u.)
  ----------------------------------------
      1 P                    -0.132480
      2 H                     0.041490
      3 H                     0.038249
      4 H                     0.052741
  ----------------------------------------
  Sum of atomic charges =     0.000000

                    Cartesian Multipole Moments
 -----------------------------------------------------------------
    Charge (ESU x 10^10)
                -0.0000
    Dipole Moment (Debye)
         X      -0.1403      Y       0.0033      Z       0.5524
       Tot       0.5699
    Quadrupole Moments (Debye-Ang)
        XX     -14.6485     XY      -0.0139     YY     -14.6864
        XZ       0.0392     YZ      -0.0015     ZZ     -16.8094

             Standard Nuclear Orientation (Angstroms)
    I     Atom           X                Y                Z
 ----------------------------------------------------------------
    1      P       0.0000357168     0.0000611906    -0.1284793227
    2      H       0.3584190298    -1.1351385628     0.6420883886
    3      H       0.8033523487     0.8776535610     0.6428451773
    4      H      -1.1623071307     0.2565671432     0.6422562742
 ----------------------------------------------------------------

 Frequency:      1034.93                1139.86                1143.70
 Force Cnst:      0.6785                 0.7849                 0.7902
 Red. Mass:       1.0752                 1.0253                 1.0253
 IR Intens:       17.724                  8.671                  8.707
 Frequency:      2408.08                2415.52                2416.59
 Force Cnst:      3.5261                 3.5779                 3.5814
 Red. Mass:       1.0320                 1.0408                 1.0409
 IR Intens:       32.069                 59.388                 59.643

 STANDARD THERMODYNAMIC QUANTITIES FOR ANHARMONIC VIBRATION -- VCI 4

   Zero point vibrational energy:       14.641 kcal/mol

   Vibrational Enthalpy:         14.696 kcal/mol
   Vibrational Entropy:           0.222  cal/mol.K

   Total Enthalpy:               17.066 kcal/mol
   Total Entropy:                52.408  cal/mol.K

 Total job time:  311.73s(wall), 1220.48s(cpu)
        *  Thank you very much for using Q-Chem.  Have a nice day.  *
