 Q-Chem 5.2 (devel), Q-Chem, Inc., Pleasanton, CA (2019)
 Q-Chem 5.2.0 for Intel X86 EM64T Linux

User input:
--------------------------------------------------------------
$comment
	QCHEM - Silane
	Geometry optimization
	Anharmonic frequency analysis
$end

$molecule
0 1
Si         0.00646        1.04427       -0.00000
H          1.49146        1.04427        0.00000
H         -0.48854        0.03020       -0.96533
H         -0.48854        2.38730       -0.39554
H         -0.48854        0.71530        1.36087

$end

$rem
	JOBTYPE	OPT
	METHOD	M06
	BASIS	def2-TZVP
	SCF_CONVERGENCE	7
$end

--------------------------------------------------------------

    8    -291.8741142327      4.83e-08  Convergence criterion met
 Total energy in the final basis set =     -291.8741142327
    6    -291.8742329439      4.24e-08  Convergence criterion met
 Total energy in the final basis set =     -291.8742329439
    5    -291.8742342939      2.98e-08  Convergence criterion met
 Total energy in the final basis set =     -291.8742342939
 Final energy is   -291.874234293854
 **  OPTIMIZATION CONVERGED  **
 Total job time:  6.69s(wall), 26.01s(cpu)
        *  Thank you very much for using Q-Chem.  Have a nice day.  *

User input: 2 of 2

                  Welcome to Q-Chem
     A Quantum Leap Into The Future Of Chemistry

 Q-Chem 5.2 (devel), Q-Chem, Inc., Pleasanton, CA (2019)

 Yihan Shao,  Zhengting Gan,  E. Epifanovsky,  A. T. B. Gilbert,  M. Wormit,
 J. Kussmann,  A. W. Lange,  A. Behn,  Jia Deng,  Xintian Feng,  D. Ghosh,
 M. Goldey,  P. R. Horn,  L. D. Jacobson,  I. Kaliman,  T. Kus,  A. Landau,
 Jie Liu,  E. I. Proynov,  R. M. Richard,  R. P. Steele,  E. J. Sundstrom,
 H. L. Woodcock III,  P. M. Zimmerman,  D. Zuev,  B. Albrecht,  E. Alguire,
 S. A. Baeppler,  D. Barton,  Z. Benda,  Y. A. Bernard,  E. J. Berquist,
 K. B. Bravaya,  H. Burton,  D. Casanova,  Chun-Min Chang,  Yunqing Chen,
 A. Chien,  K. D. Closser,  M. P. Coons,  S. Coriani,  S. Dasgupta,
 A. L. Dempwolff,  M. Diedenhofen,  Hainam Do,  R. G. Edgar,  Po-Tung Fang,
 S. Faraji,  S. Fatehi,  Qingguo Feng,  K. D. Fenk,  J. Fosso-Tande,
 J. Gayvert,  Qinghui Ge,  A. Ghysels,  G. Gidofalvi,  J. Gomes,
 J. Gonthier,  A. Gunina,  D. Hait,  M. W. D. Hanson-Heine,
 P. H. P. Harbach,  A. W. Hauser,  M. F. Herbst,  J. E. Herr,
 E. G. Hohenstein,  Z. C. Holden,  Kerwin Hui,  B. C. Huynh,  T.-C. Jagau,
 Hyunjun Ji,  B. Kaduk,  K. Khistyaev,  Jaehoon Kim,  P. Klunzinger,  K. Koh,
 D. Kosenkov,  L. Koulias,  T. Kowalczyk,  C. M. Krauter,  A. Kunitsa,
 Ka Un Lao,  A. Laurent,  K. V. Lawler,  Joonho Lee,  D. Lefrancois,
 S. Lehtola,  D. S. Levine,  Yi-Pei Li,  You-Sheng Lin,  Fenglai Liu,
 E. Livshits,  A. Luenser,  P. Manohar,  E. Mansoor,  S. F. Manzer,
 Shan-Ping Mao,  Yuezhi Mao,  N. Mardirossian,  A. V. Marenich,
 T. Markovich,  L. A. Martinez-Martinez,  S. A. Maurer,  N. J. Mayhall,
 S. C. McKenzie,  J.-M. Mewes,  P. Morgante,  A. F. Morrison,
 J. W. Mullinax,  K. Nanda,  T. S. Nguyen-Beck,  R. Olivares-Amaya,
 J. A. Parkhill,  Zheng Pei,  T. M. Perrine,  F. Plasser,  P. Pokhilko,
 S. Prager,  A. Prociuk,  E. Ramos,  D. R. Rehn,  F. Rob,  M. Scheurer,
 M. Schneider,  N. Sergueev,  S. M. Sharada,  S. Sharma,  D. W. Small,
 T. Stauch,  T. Stein,  Yu-Chuan Su,  A. J. W. Thom,  A. Tkatchenko,
 T. Tsuchimochi,  N. M. Tubman,  L. Vogt,  M. L. Vidal,  O. Vydrov,
 M. A. Watson,  J. Wenzel,  M. de Wergifosse,  T. A. Wesolowski,  A. White,
 J. Witte,  A. Yamada,  Jun Yang,  K. Yao,  S. Yeganeh,  S. R. Yost,
 Zhi-Qiang You,  A. Zech,  Igor Ying Zhang,  Xing Zhang,  Yan Zhao,
 Ying Zhu,  B. R. Brooks,  G. K. L. Chan,  C. J. Cramer,  M. S. Gordon,
 W. J. Hehre,  A. Klamt,  M. W. Schmidt,  C. D. Sherrill,  D. G. Truhlar,
 A. Aspuru-Guzik,  R. Baer,  A. T. Bell,  N. A. Besley,  Jeng-Da Chai,
 A. E. DePrince, III,  R. A. DiStasio Jr.,  A. Dreuw,  B. D. Dunietz,
 T. R. Furlani,  Chao-Ping Hsu,  Yousung Jung,  Jing Kong,  D. S. Lambrecht,
 WanZhen Liang,  C. Ochsenfeld,  V. A. Rassolov,  L. V. Slipchenko,
 J. E. Subotnik,  T. Van Voorhis,  J. M. Herbert,  A. I. Krylov,
 P. M. W. Gill,  M. Head-Gordon

 Contributors to earlier versions of Q-Chem not listed above:
 R. D. Adamson,  B. Austin,  J. Baker,  G. J. O. Beran,  K. Brandhorst,
 S. T. Brown,  E. F. C. Byrd,  A. K. Chakraborty,  C.-L. Cheng,
 Siu Hung Chien,  D. M. Chipman,  D. L. Crittenden,  H. Dachsel,
 R. J. Doerksen,  A. D. Dutoi,  L. Fusti-Molnar,  W. A. Goddard III,
 A. Golubeva-Zadorozhnaya,  S. R. Gwaltney,  G. Hawkins,  A. Heyden,
 S. Hirata,  G. Kedziora,  F. J. Keil,  C. Kelley,  Jihan Kim,  R. A. King,
 R. Z. Khaliullin,  P. P. Korambath,  W. Kurlancheek,  A. M. Lee,  M. S. Lee,
 S. V. Levchenko,  Ching Yeh Lin,  D. Liotard,  R. C. Lochan,  I. Lotan,
 P. E. Maslen,  N. Nair,  D. P. O'Neill,  D. Neuhauser,  E. Neuscamman,
 C. M. Oana,  R. Olson,  B. Peters,  R. Peverati,  P. A. Pieniazek,
 Y. M. Rhee,  J. Ritchie,  M. A. Rohrdanz,  E. Rosta,  N. J. Russ,
 H. F. Schaefer III,  N. E. Schultz,  N. Shenvi,  A. C. Simmonett,  A. Sodt,
 D. Stuck,  K. S. Thanthiriwatte,  V. Vanovschi,  Tao Wang,  A. Warshel,
 C. F. Williams,  Q. Wu,  X. Xu,  W. Zhang

 Please cite Q-Chem as follows:
 Y. Shao et al., Mol. Phys. 113, 184-215 (2015)
 DOI: 10.1080/00268976.2014.952696

 Q-Chem 5.2.0 for Intel X86 EM64T Linux

 Parts of Q-Chem use Armadillo 8.300.2 (Tropical Shenanigans).
 http://arma.sourceforge.net/

 Q-Chem begins on Tue Jun 23 21:56:24 2020

Host: gadi-cpu-clx-0263.gadi.nci.org.au
0

     Scratch files written to /jobfs/7626483.gadi-pbs/qchem39277//
NAlpha2: 18
NElect   18
Mult     1
The previous job contains 0 fragments, simply inherited here

Checking the input file for inconsistencies... 	...done.

--------------------------------------------------------------
User input:
--------------------------------------------------------------

$molecule
	READ
$end

$rem
	JOBTYPE	FREQ
	METHOD	M06
	BASIS	def2-TZVP
	ANHAR	TRUE
	SCF_CONVERGENCE	7
	VCI	4
$end
--------------------------------------------------------------

    8    -291.8742406966      4.89e-08  Convergence criterion met
 Total energy in the final basis set =     -291.8742406966
 Frequency:       939.18                 940.21                 940.83
 Force Cnst:      0.5694                 0.5707                 0.5714
 Red. Mass:       1.0957                 1.0957                 1.0956
 IR Intens:      141.239                141.061                140.883
 Frequency:       987.97                 989.40                2279.20
 Force Cnst:      0.5796                 0.5813                 3.1138
 Red. Mass:       1.0078                 1.0079                 1.0174
 IR Intens:        0.031                  0.102                 28.528
 Frequency:      2280.82                2282.20                2282.95
 Force Cnst:      3.2079                 3.2096                 3.2264
 Red. Mass:       1.0466                 1.0459                 1.0507
 IR Intens:      110.928                109.391                122.381
    6    -291.8740582756      5.71e-08  Convergence criterion met
 Total energy in the final basis set =     -291.8740582756
    7    -291.8735071810      2.19e-08  Convergence criterion met
 Total energy in the final basis set =     -291.8735071810
    7    -291.8740535517      5.18e-08  Convergence criterion met
 Total energy in the final basis set =     -291.8740535517
 Total energy in the final basis set =     -291.8730527841
    7    -291.8702019704      5.24e-08  Convergence criterion met
 Total energy in the final basis set =     -291.8702019704
    7    -291.8723436123      8.50e-08  Convergence criterion met
 Total energy in the final basis set =     -291.8723436123
    7    -291.8696530368      5.59e-08  Convergence criterion met
 Total energy in the final basis set =     -291.8696530368
    7    -291.8721027125      8.71e-08  Convergence criterion met
 Total energy in the final basis set =     -291.8721027125
    7    -291.8691164507      5.00e-08  Convergence criterion met
 Total energy in the final basis set =     -291.8691164507
    7    -291.8719746764      9.93e-08  Convergence criterion met
 Total energy in the final basis set =     -291.8719746764
    7    -291.8686635789      5.09e-08  Convergence criterion met
 Total energy in the final basis set =     -291.8686635789

                    Orbital Energies (a.u.)
 --------------------------------------------------------------

 Alpha MOs
 -- Occupied --
-66.2587  -5.3628  -3.6822  -3.6820  -3.6818  -0.5605  -0.3718  -0.3602
 -0.3529

          Ground-State Mulliken Net Atomic Charges

     Atom                 Charge (a.u.)
  ----------------------------------------
      1 Si                    0.215303
      2 H                    -0.058365
      3 H                    -0.054208
      4 H                    -0.054858
      5 H                    -0.047872
  ----------------------------------------
  Sum of atomic charges =     0.000000

                    Cartesian Multipole Moments
 -----------------------------------------------------------------
    Charge (ESU x 10^10)
                -0.0000
    Dipole Moment (Debye)
         X      -0.1678      Y      -0.0996      Z      -0.0600
       Tot       0.2042
    Quadrupole Moments (Debye-Ang)
        XX     -16.4677     XY       0.0967     YY     -16.3178
        XZ      -0.0178     YZ       0.0356     ZZ     -16.4301

             Standard Nuclear Orientation (Angstroms)
    I     Atom           X                Y                Z
 ----------------------------------------------------------------
    1      Si      0.0000132189    -0.0000183525     0.0000316899
    2      H       1.3374969964    -0.3665948366     0.5052978780
    3      H       0.1418068489     0.7856002642    -1.2409654869
    4      H      -0.7057117292     0.8065467811     1.0143548522
    5      H      -0.7737771803    -1.2252952738    -0.2791309017
 ----------------------------------------------------------------

 Frequency:       939.18                 940.21                 940.83
 Force Cnst:      0.5694                 0.5707                 0.5714
 Red. Mass:       1.0957                 1.0957                 1.0956
 IR Intens:      141.239                141.061                140.883
 Frequency:       987.97                 989.40                2279.20
 Force Cnst:      0.5796                 0.5813                 3.1138
 Red. Mass:       1.0078                 1.0079                 1.0174
 IR Intens:        0.031                  0.102                 28.528
 Frequency:      2280.82                2282.20                2282.95
 Force Cnst:      3.2079                 3.2096                 3.2264
 Red. Mass:       1.0466                 1.0459                 1.0507
 IR Intens:      110.928                109.391                122.381

 STANDARD THERMODYNAMIC QUANTITIES FOR ANHARMONIC VIBRATION -- VCI 4

   Zero point vibrational energy:       19.343 kcal/mol

   Vibrational Enthalpy:         19.492 kcal/mol
   Vibrational Entropy:           0.608  cal/mol.K

   Total Enthalpy:               21.862 kcal/mol
   Total Entropy:                53.794  cal/mol.K

 Total job time:  832.23s(wall), 3243.04s(cpu)
        *  Thank you very much for using Q-Chem.  Have a nice day.  *
