 Q-Chem 5.2 (devel), Q-Chem, Inc., Pleasanton, CA (2019)
 Q-Chem 5.2.0 for Intel X86 EM64T Linux

User input:
--------------------------------------------------------------
$comment
	geom opt + anharmonic freq analysis for CCl3F
$end

$molecule
0 1
C	-1.2505130	 0.3116482	-0.8882340
Cl	-2.9483449	-0.1358539	-1.1681284
Cl	-1.1573913	 2.0274760	-0.4316209
Cl	-0.5825504	-0.6874316	 0.4220705
F	-0.5226464	 0.1024401	-2.0436727
$end

$rem
	JOBTYPE	OPT
	METHOD	M06
	BASIS	def2-TZVP
$end

--------------------------------------------------------------

   12   -1518.4763956381      3.31e-09  Convergence criterion met
 Total energy in the final basis set =    -1518.4763956381
   11   -1518.4794443148      2.83e-09  Convergence criterion met
 Total energy in the final basis set =    -1518.4794443148
   10   -1518.4797035973      3.70e-09  Convergence criterion met
 Total energy in the final basis set =    -1518.4797035973
    9   -1518.4797463630      7.17e-09  Convergence criterion met
 Total energy in the final basis set =    -1518.4797463630
    7   -1518.4797467689      7.06e-09  Convergence criterion met
 Total energy in the final basis set =    -1518.4797467689
 Final energy is   -1518.47974676891
 **  OPTIMIZATION CONVERGED  **
 Total job time:  91.09s(wall), 355.08s(cpu)
        *  Thank you very much for using Q-Chem.  Have a nice day.  *

User input: 2 of 2

                  Welcome to Q-Chem
     A Quantum Leap Into The Future Of Chemistry

 Q-Chem 5.2 (devel), Q-Chem, Inc., Pleasanton, CA (2019)

 Yihan Shao,  Zhengting Gan,  E. Epifanovsky,  A. T. B. Gilbert,  M. Wormit,
 J. Kussmann,  A. W. Lange,  A. Behn,  Jia Deng,  Xintian Feng,  D. Ghosh,
 M. Goldey,  P. R. Horn,  L. D. Jacobson,  I. Kaliman,  T. Kus,  A. Landau,
 Jie Liu,  E. I. Proynov,  R. M. Richard,  R. P. Steele,  E. J. Sundstrom,
 H. L. Woodcock III,  P. M. Zimmerman,  D. Zuev,  B. Albrecht,  E. Alguire,
 S. A. Baeppler,  D. Barton,  Z. Benda,  Y. A. Bernard,  E. J. Berquist,
 K. B. Bravaya,  H. Burton,  D. Casanova,  Chun-Min Chang,  Yunqing Chen,
 A. Chien,  K. D. Closser,  M. P. Coons,  S. Coriani,  S. Dasgupta,
 A. L. Dempwolff,  M. Diedenhofen,  Hainam Do,  R. G. Edgar,  Po-Tung Fang,
 S. Faraji,  S. Fatehi,  Qingguo Feng,  K. D. Fenk,  J. Fosso-Tande,
 J. Gayvert,  Qinghui Ge,  A. Ghysels,  G. Gidofalvi,  J. Gomes,
 J. Gonthier,  A. Gunina,  D. Hait,  M. W. D. Hanson-Heine,
 P. H. P. Harbach,  A. W. Hauser,  M. F. Herbst,  J. E. Herr,
 E. G. Hohenstein,  Z. C. Holden,  Kerwin Hui,  B. C. Huynh,  T.-C. Jagau,
 Hyunjun Ji,  B. Kaduk,  K. Khistyaev,  Jaehoon Kim,  P. Klunzinger,  K. Koh,
 D. Kosenkov,  L. Koulias,  T. Kowalczyk,  C. M. Krauter,  A. Kunitsa,
 Ka Un Lao,  A. Laurent,  K. V. Lawler,  Joonho Lee,  D. Lefrancois,
 S. Lehtola,  D. S. Levine,  Yi-Pei Li,  You-Sheng Lin,  Fenglai Liu,
 E. Livshits,  A. Luenser,  P. Manohar,  E. Mansoor,  S. F. Manzer,
 Shan-Ping Mao,  Yuezhi Mao,  N. Mardirossian,  A. V. Marenich,
 T. Markovich,  L. A. Martinez-Martinez,  S. A. Maurer,  N. J. Mayhall,
 S. C. McKenzie,  J.-M. Mewes,  P. Morgante,  A. F. Morrison,
 J. W. Mullinax,  K. Nanda,  T. S. Nguyen-Beck,  R. Olivares-Amaya,
 J. A. Parkhill,  Zheng Pei,  T. M. Perrine,  F. Plasser,  P. Pokhilko,
 S. Prager,  A. Prociuk,  E. Ramos,  D. R. Rehn,  F. Rob,  M. Scheurer,
 M. Schneider,  N. Sergueev,  S. M. Sharada,  S. Sharma,  D. W. Small,
 T. Stauch,  T. Stein,  Yu-Chuan Su,  A. J. W. Thom,  A. Tkatchenko,
 T. Tsuchimochi,  N. M. Tubman,  L. Vogt,  M. L. Vidal,  O. Vydrov,
 M. A. Watson,  J. Wenzel,  M. de Wergifosse,  T. A. Wesolowski,  A. White,
 J. Witte,  A. Yamada,  Jun Yang,  K. Yao,  S. Yeganeh,  S. R. Yost,
 Zhi-Qiang You,  A. Zech,  Igor Ying Zhang,  Xing Zhang,  Yan Zhao,
 Ying Zhu,  B. R. Brooks,  G. K. L. Chan,  C. J. Cramer,  M. S. Gordon,
 W. J. Hehre,  A. Klamt,  M. W. Schmidt,  C. D. Sherrill,  D. G. Truhlar,
 A. Aspuru-Guzik,  R. Baer,  A. T. Bell,  N. A. Besley,  Jeng-Da Chai,
 A. E. DePrince, III,  R. A. DiStasio Jr.,  A. Dreuw,  B. D. Dunietz,
 T. R. Furlani,  Chao-Ping Hsu,  Yousung Jung,  Jing Kong,  D. S. Lambrecht,
 WanZhen Liang,  C. Ochsenfeld,  V. A. Rassolov,  L. V. Slipchenko,
 J. E. Subotnik,  T. Van Voorhis,  J. M. Herbert,  A. I. Krylov,
 P. M. W. Gill,  M. Head-Gordon

 Contributors to earlier versions of Q-Chem not listed above:
 R. D. Adamson,  B. Austin,  J. Baker,  G. J. O. Beran,  K. Brandhorst,
 S. T. Brown,  E. F. C. Byrd,  A. K. Chakraborty,  C.-L. Cheng,
 Siu Hung Chien,  D. M. Chipman,  D. L. Crittenden,  H. Dachsel,
 R. J. Doerksen,  A. D. Dutoi,  L. Fusti-Molnar,  W. A. Goddard III,
 A. Golubeva-Zadorozhnaya,  S. R. Gwaltney,  G. Hawkins,  A. Heyden,
 S. Hirata,  G. Kedziora,  F. J. Keil,  C. Kelley,  Jihan Kim,  R. A. King,
 R. Z. Khaliullin,  P. P. Korambath,  W. Kurlancheek,  A. M. Lee,  M. S. Lee,
 S. V. Levchenko,  Ching Yeh Lin,  D. Liotard,  R. C. Lochan,  I. Lotan,
 P. E. Maslen,  N. Nair,  D. P. O'Neill,  D. Neuhauser,  E. Neuscamman,
 C. M. Oana,  R. Olson,  B. Peters,  R. Peverati,  P. A. Pieniazek,
 Y. M. Rhee,  J. Ritchie,  M. A. Rohrdanz,  E. Rosta,  N. J. Russ,
 H. F. Schaefer III,  N. E. Schultz,  N. Shenvi,  A. C. Simmonett,  A. Sodt,
 D. Stuck,  K. S. Thanthiriwatte,  V. Vanovschi,  Tao Wang,  A. Warshel,
 C. F. Williams,  Q. Wu,  X. Xu,  W. Zhang

 Please cite Q-Chem as follows:
 Y. Shao et al., Mol. Phys. 113, 184-215 (2015)
 DOI: 10.1080/00268976.2014.952696

 Q-Chem 5.2.0 for Intel X86 EM64T Linux

 Parts of Q-Chem use Armadillo 8.300.2 (Tropical Shenanigans).
 http://arma.sourceforge.net/

 Q-Chem begins on Mon Jun 22 10:25:10 2020

Host: gadi-cpu-clx-0861.gadi.nci.org.au
0

     Scratch files written to /jobfs/7491019.gadi-pbs/qchem31803//
NAlpha2: 66
NElect   66
Mult     1
The previous job contains 0 fragments, simply inherited here

Checking the input file for inconsistencies... 	...done.

--------------------------------------------------------------
User input:
--------------------------------------------------------------

$molecule
	READ
$end

$rem
	JOBTYPE	FREQ
	METHOD	M06
	BASIS	def2-TZVP
	ANHAR	TRUE
	VCI	4
$end
--------------------------------------------------------------

   12   -1518.4797467672      2.15e-09  Convergence criterion met
 Total energy in the final basis set =    -1518.4797467672
 Frequency:       243.10                 246.40                 351.35
 Force Cnst:      1.0465                 1.0719                 1.8630
 Red. Mass:      30.0551                29.9674                25.6148
 IR Intens:        0.048                  0.033                  0.178
 Frequency:       403.73                 404.82                 542.47
 Force Cnst:      2.4272                 2.4465                 3.8679
 Red. Mass:      25.2739                25.3374                22.3092
 IR Intens:        0.400                  0.496                  3.170
 Frequency:       815.46                 815.96                1153.93
 Force Cnst:      5.0347                 5.0406                10.8196
 Red. Mass:      12.8506                12.8498                13.7911
 IR Intens:      297.226                297.620                213.337
   10   -1518.4791581824      4.02e-09  Convergence criterion met
 Total energy in the final basis set =    -1518.4791581824
 Total energy in the final basis set =    -1518.4748798743
   11   -1518.4593932886      4.54e-09  Convergence criterion met
 Total energy in the final basis set =    -1518.4593932886
   11   -1518.4745257088      6.54e-09  Convergence criterion met
 Total energy in the final basis set =    -1518.4745257088
   11   -1518.4593295409      3.93e-09  Convergence criterion met
 Total energy in the final basis set =    -1518.4593295409
   12   -1518.4741328200      2.88e-09  Convergence criterion met
 Total energy in the final basis set =    -1518.4741328200
   11   -1518.4589019222      4.54e-09  Convergence criterion met
 Total energy in the final basis set =    -1518.4589019222
   12   -1518.4742179510      2.90e-09  Convergence criterion met
 Total energy in the final basis set =    -1518.4742179510
   11   -1518.4589613617      4.89e-09  Convergence criterion met
 Total energy in the final basis set =    -1518.4589613617

                    Orbital Energies (a.u.)
 --------------------------------------------------------------

 Alpha MOs
 -- Occupied --
********-101.7326-101.7225 -24.8871 -10.5122  -9.6194  -9.6096  -9.5993
 -7.3312  -7.3214  -7.3212  -7.3212  -7.3115  -7.3115  -7.3110  -7.3013
 -7.3013  -1.4435  -0.9530  -0.8803  -0.8634  -0.7415  -0.6295  -0.6283
 -0.5892  -0.4468  -0.4429  -0.3880  -0.3715  -0.3661  -0.3419  -0.3343
 -0.3234

          Ground-State Mulliken Net Atomic Charges

     Atom                 Charge (a.u.)
  ----------------------------------------
      1 C                     0.312211
      2 Cl                   -0.090928
      3 Cl                   -0.057733
      4 Cl                   -0.128674
      5 F                    -0.034876
  ----------------------------------------
  Sum of atomic charges =     0.000000

                    Cartesian Multipole Moments
 -----------------------------------------------------------------
    Charge (ESU x 10^10)
                 0.0000
    Dipole Moment (Debye)
         X       0.0014      Y       0.5267      Z       0.6312
       Tot       0.8221
    Quadrupole Moments (Debye-Ang)
        XX     -47.3416     XY      -0.5540     YY     -47.3495
        XZ      -0.0130     YZ      -0.1375     ZZ     -46.8194

             Standard Nuclear Orientation (Angstroms)
    I     Atom           X                Y                Z
 ----------------------------------------------------------------
    1      C      -0.0000000000    -0.0000000000     0.2591052280
    2      Cl      1.6748152480     0.0000000000    -0.3090051147
    3      Cl     -0.8374076240     1.4504325514    -0.3090051147
    4      Cl     -0.8374076240    -1.4504325514    -0.3090051147
    5      F      -0.0000000000    -0.0000000000     1.5782921646
 ----------------------------------------------------------------

 Frequency:       243.10                 246.40                 351.35
 Force Cnst:      1.0465                 1.0719                 1.8630
 Red. Mass:      30.0551                29.9674                25.6148
 IR Intens:        0.048                  0.033                  0.178
 Frequency:       403.73                 404.82                 542.47
 Force Cnst:      2.4272                 2.4465                 3.8679
 Red. Mass:      25.2739                25.3374                22.3092
 IR Intens:        0.400                  0.496                  3.170
 Frequency:       815.46                 815.96                1153.93
 Force Cnst:      5.0347                 5.0406                10.8196
 Red. Mass:      12.8506                12.8498                13.7911
 IR Intens:      297.226                297.620                213.337

 STANDARD THERMODYNAMIC QUANTITIES FOR ANHARMONIC VIBRATION -- VCI 4

   Zero point vibrational energy:        7.042 kcal/mol

   Vibrational Enthalpy:          8.508 kcal/mol
   Vibrational Entropy:           7.643  cal/mol.K

   Total Enthalpy:               10.878 kcal/mol
   Total Entropy:                73.918  cal/mol.K

 Total job time:  4438.75s(wall), 17668.45s(cpu)
        *  Thank you very much for using Q-Chem.  Have a nice day.  *
