 Q-Chem 5.2 (devel), Q-Chem, Inc., Pleasanton, CA (2019)
 Q-Chem 5.2.0 for Intel X86 EM64T Linux

User input:
--------------------------------------------------------------
$comment
	QCHEM - Water
	Geometry optimization
	Anharmonic frequency analysis
$end

$molecule
0 1
O	 0.17795	1.34789		 0.02109
H	 1.16728	1.37117		-0.01489
H	-0.11141	1.86226		-0.77408
$end

$rem
	JOBTYPE	OPT
	METHOD	wB97XD
	BASIS	def2-TZVP
$end

--------------------------------------------------------------

   10     -76.4343205481      6.03e-09  Convergence criterion met
 Total energy in the final basis set =      -76.4343205481
    9     -76.4361881275      1.59e-09  Convergence criterion met
 Total energy in the final basis set =      -76.4361881275
    8     -76.4362290731      2.33e-09  Convergence criterion met
 Total energy in the final basis set =      -76.4362290731
 Final energy is   -76.4362290731242
 **  OPTIMIZATION CONVERGED  **
 Total job time:  7.78s(wall), 6.85s(cpu)
        *  Thank you very much for using Q-Chem.  Have a nice day.  *

User input: 2 of 2

                  Welcome to Q-Chem
     A Quantum Leap Into The Future Of Chemistry

 Q-Chem 5.2 (devel), Q-Chem, Inc., Pleasanton, CA (2019)

 Yihan Shao,  Zhengting Gan,  E. Epifanovsky,  A. T. B. Gilbert,  M. Wormit,
 J. Kussmann,  A. W. Lange,  A. Behn,  Jia Deng,  Xintian Feng,  D. Ghosh,
 M. Goldey,  P. R. Horn,  L. D. Jacobson,  I. Kaliman,  T. Kus,  A. Landau,
 Jie Liu,  E. I. Proynov,  R. M. Richard,  R. P. Steele,  E. J. Sundstrom,
 H. L. Woodcock III,  P. M. Zimmerman,  D. Zuev,  B. Albrecht,  E. Alguire,
 S. A. Baeppler,  D. Barton,  Z. Benda,  Y. A. Bernard,  E. J. Berquist,
 K. B. Bravaya,  H. Burton,  D. Casanova,  Chun-Min Chang,  Yunqing Chen,
 A. Chien,  K. D. Closser,  M. P. Coons,  S. Coriani,  S. Dasgupta,
 A. L. Dempwolff,  M. Diedenhofen,  Hainam Do,  R. G. Edgar,  Po-Tung Fang,
 S. Faraji,  S. Fatehi,  Qingguo Feng,  K. D. Fenk,  J. Fosso-Tande,
 J. Gayvert,  Qinghui Ge,  A. Ghysels,  G. Gidofalvi,  J. Gomes,
 J. Gonthier,  A. Gunina,  D. Hait,  M. W. D. Hanson-Heine,
 P. H. P. Harbach,  A. W. Hauser,  M. F. Herbst,  J. E. Herr,
 E. G. Hohenstein,  Z. C. Holden,  Kerwin Hui,  B. C. Huynh,  T.-C. Jagau,
 Hyunjun Ji,  B. Kaduk,  K. Khistyaev,  Jaehoon Kim,  P. Klunzinger,  K. Koh,
 D. Kosenkov,  L. Koulias,  T. Kowalczyk,  C. M. Krauter,  A. Kunitsa,
 Ka Un Lao,  A. Laurent,  K. V. Lawler,  Joonho Lee,  D. Lefrancois,
 S. Lehtola,  D. S. Levine,  Yi-Pei Li,  You-Sheng Lin,  Fenglai Liu,
 E. Livshits,  A. Luenser,  P. Manohar,  E. Mansoor,  S. F. Manzer,
 Shan-Ping Mao,  Yuezhi Mao,  N. Mardirossian,  A. V. Marenich,
 T. Markovich,  L. A. Martinez-Martinez,  S. A. Maurer,  N. J. Mayhall,
 S. C. McKenzie,  J.-M. Mewes,  P. Morgante,  A. F. Morrison,
 J. W. Mullinax,  K. Nanda,  T. S. Nguyen-Beck,  R. Olivares-Amaya,
 J. A. Parkhill,  Zheng Pei,  T. M. Perrine,  F. Plasser,  P. Pokhilko,
 S. Prager,  A. Prociuk,  E. Ramos,  D. R. Rehn,  F. Rob,  M. Scheurer,
 M. Schneider,  N. Sergueev,  S. M. Sharada,  S. Sharma,  D. W. Small,
 T. Stauch,  T. Stein,  Yu-Chuan Su,  A. J. W. Thom,  A. Tkatchenko,
 T. Tsuchimochi,  N. M. Tubman,  L. Vogt,  M. L. Vidal,  O. Vydrov,
 M. A. Watson,  J. Wenzel,  M. de Wergifosse,  T. A. Wesolowski,  A. White,
 J. Witte,  A. Yamada,  Jun Yang,  K. Yao,  S. Yeganeh,  S. R. Yost,
 Zhi-Qiang You,  A. Zech,  Igor Ying Zhang,  Xing Zhang,  Yan Zhao,
 Ying Zhu,  B. R. Brooks,  G. K. L. Chan,  C. J. Cramer,  M. S. Gordon,
 W. J. Hehre,  A. Klamt,  M. W. Schmidt,  C. D. Sherrill,  D. G. Truhlar,
 A. Aspuru-Guzik,  R. Baer,  A. T. Bell,  N. A. Besley,  Jeng-Da Chai,
 A. E. DePrince, III,  R. A. DiStasio Jr.,  A. Dreuw,  B. D. Dunietz,
 T. R. Furlani,  Chao-Ping Hsu,  Yousung Jung,  Jing Kong,  D. S. Lambrecht,
 WanZhen Liang,  C. Ochsenfeld,  V. A. Rassolov,  L. V. Slipchenko,
 J. E. Subotnik,  T. Van Voorhis,  J. M. Herbert,  A. I. Krylov,
 P. M. W. Gill,  M. Head-Gordon

 Contributors to earlier versions of Q-Chem not listed above:
 R. D. Adamson,  B. Austin,  J. Baker,  G. J. O. Beran,  K. Brandhorst,
 S. T. Brown,  E. F. C. Byrd,  A. K. Chakraborty,  C.-L. Cheng,
 Siu Hung Chien,  D. M. Chipman,  D. L. Crittenden,  H. Dachsel,
 R. J. Doerksen,  A. D. Dutoi,  L. Fusti-Molnar,  W. A. Goddard III,
 A. Golubeva-Zadorozhnaya,  S. R. Gwaltney,  G. Hawkins,  A. Heyden,
 S. Hirata,  G. Kedziora,  F. J. Keil,  C. Kelley,  Jihan Kim,  R. A. King,
 R. Z. Khaliullin,  P. P. Korambath,  W. Kurlancheek,  A. M. Lee,  M. S. Lee,
 S. V. Levchenko,  Ching Yeh Lin,  D. Liotard,  R. C. Lochan,  I. Lotan,
 P. E. Maslen,  N. Nair,  D. P. O'Neill,  D. Neuhauser,  E. Neuscamman,
 C. M. Oana,  R. Olson,  B. Peters,  R. Peverati,  P. A. Pieniazek,
 Y. M. Rhee,  J. Ritchie,  M. A. Rohrdanz,  E. Rosta,  N. J. Russ,
 H. F. Schaefer III,  N. E. Schultz,  N. Shenvi,  A. C. Simmonett,  A. Sodt,
 D. Stuck,  K. S. Thanthiriwatte,  V. Vanovschi,  Tao Wang,  A. Warshel,
 C. F. Williams,  Q. Wu,  X. Xu,  W. Zhang

 Please cite Q-Chem as follows:
 Y. Shao et al., Mol. Phys. 113, 184-215 (2015)
 DOI: 10.1080/00268976.2014.952696

 Q-Chem 5.2.0 for Intel X86 EM64T Linux

 Parts of Q-Chem use Armadillo 8.300.2 (Tropical Shenanigans).
 http://arma.sourceforge.net/

 Q-Chem begins on Fri Jun 19 01:08:30 2020

Host: gadi-cpu-clx-2651.gadi.nci.org.au
0

     Scratch files written to /jobfs/7377773.gadi-pbs/qchem87511//
NAlpha2: 10
NElect   10
Mult     1
The previous job contains 0 fragments, simply inherited here

Checking the input file for inconsistencies... 	...done.

--------------------------------------------------------------
User input:
--------------------------------------------------------------

$molecule
	READ
$end

$rem
	JOBTYPE	FREQ
	METHOD	wB97XD
	BASIS	def2-TZVP
	ANHAR	TRUE
	VCI	4
$end
--------------------------------------------------------------

   10     -76.4362293890      6.74e-09  Convergence criterion met
 Total energy in the final basis set =      -76.4362293890
 Frequency:      1626.53                3874.54                3983.79
 Force Cnst:      1.6889                 9.2375                10.1241
 Red. Mass:       1.0835                 1.0444                 1.0827
 IR Intens:       82.518                  6.287                 48.460
    8     -76.4356612779      7.95e-09  Convergence criterion met
 Total energy in the final basis set =      -76.4356612779
    8     -76.4339428887      7.82e-09  Convergence criterion met
 Total energy in the final basis set =      -76.4339428887
    9     -76.4329679461      3.18e-09  Convergence criterion met
 Total energy in the final basis set =      -76.4329679461
 Total energy in the final basis set =      -76.4308396985
   10     -76.4329343807      2.27e-09  Convergence criterion met
 Total energy in the final basis set =      -76.4329343807
    9     -76.4256157994      2.57e-09  Convergence criterion met
 Total energy in the final basis set =      -76.4256157994
   10     -76.4243623786      1.77e-09  Convergence criterion met
 Total energy in the final basis set =      -76.4243623786
   10     -76.4323829845      1.50e-09  Convergence criterion met
 Total energy in the final basis set =      -76.4323829845
    9     -76.4221686540      7.96e-09  Convergence criterion met
 Total energy in the final basis set =      -76.4221686540
   10     -76.4310102918      2.36e-09  Convergence criterion met
 Total energy in the final basis set =      -76.4310102918
    9     -76.4233080141      7.22e-09  Convergence criterion met
 Total energy in the final basis set =      -76.4233080141

                    Orbital Energies (a.u.)
 --------------------------------------------------------------

 Alpha MOs
 -- Occupied --
-19.2504  -1.1017  -0.6067  -0.4714  -0.3978

          Ground-State Mulliken Net Atomic Charges

     Atom                 Charge (a.u.)
  ----------------------------------------
      1 O                    -0.650527
      2 H                     0.320359
      3 H                     0.330168
  ----------------------------------------
  Sum of atomic charges =     0.000000

                    Cartesian Multipole Moments
 -----------------------------------------------------------------
    Charge (ESU x 10^10)
                -0.0000
    Dipole Moment (Debye)
         X       0.1112      Y      -0.0000      Z      -2.1087
       Tot       2.1116
    Quadrupole Moments (Debye-Ang)
        XX      -4.1578     XY       0.0000     YY      -7.5891
        XZ      -0.2204     YZ      -0.0000     ZZ      -6.2539

             Standard Nuclear Orientation (Angstroms)
    I     Atom           X                Y                Z
 ----------------------------------------------------------------
    1      O       0.0000000000     0.0000000000     0.1161104738
    2      H      -0.7614478524    -0.0000000000    -0.4644419635
    3      H       0.7614478524     0.0000000000    -0.4644419635
 ----------------------------------------------------------------

 Frequency:      1626.53                3874.54                3983.79
 Force Cnst:      1.6889                 9.2375                10.1241
 Red. Mass:       1.0835                 1.0444                 1.0827
 IR Intens:       82.518                  6.287                 48.460

 STANDARD THERMODYNAMIC QUANTITIES FOR ANHARMONIC VIBRATION -- VCI 4

   Zero point vibrational energy:       13.061 kcal/mol

   Vibrational Enthalpy:         13.064 kcal/mol
   Vibrational Entropy:           0.009  cal/mol.K

   Total Enthalpy:               15.433 kcal/mol
   Total Entropy:                45.058  cal/mol.K

 Total job time:  337.24s(wall), 326.83s(cpu)
        *  Thank you very much for using Q-Chem.  Have a nice day.  *
