 Gaussian 16, Revision C.01,
 Gaussian 16:  ES64L-G16RevC.01  3-Jul-2019

 -------------------------------------------------------
 # M06/Def2TZVP Freq=(anharmonic,ReadAnharm) Opt=CalcAll
 -------------------------------------------------------

 --------------------------------------------------------
 Anharmonic frequencies for 1,2-difluoroethane using VPT2
 --------------------------------------------------------
 Symbolic Z-matrix:
 Charge =  0 Multiplicity = 1

 SCF Done:  E(RM06) =  -278.279422241     A.U. after   12 cycles
 SCF Done:  E(RM06) =  -278.280220431     A.U. after   10 cycles
 SCF Done:  E(RM06) =  -278.280226238     A.U. after    7 cycles
 Optimization completed.
    -- Stationary point found.
 Normal termination of Gaussian 16 at Tue Jun 23 15:35:37 2020.

 ------------------------------------------------------------------
 #N Geom=AllCheck Guess=TCheck SCRF=Check GenChk RM06/def2TZVP Freq
 ------------------------------------------------------------------

 Structure from the checkpoint file:  "checkpoint.chk"
 --------------------------------------------------------
 Anharmonic frequencies for 1,2-difluoroethane using VPT2
 --------------------------------------------------------
 Charge =  0 Multiplicity = 1

                         Standard orientation:
 ---------------------------------------------------------------------
 Center     Atomic      Atomic             Coordinates (Angstroms)
 Number     Number       Type             X           Y           Z
 ---------------------------------------------------------------------
      1          6           0        0.259232    0.700714   -0.506168
      2          6           0       -0.259232   -0.700714   -0.506168
      3          1           0        1.351334    0.701170   -0.422034
      4          9           0       -0.259232    1.407008    0.544575
      5          1           0       -0.023886    1.196222   -1.442129
      6          9           0        0.259232   -1.407008    0.544575
      7          1           0        0.023886   -1.196222   -1.442129
      8          1           0       -1.351334   -0.701170   -0.422034
 ---------------------------------------------------------------------

 SCF Done:  E(RM06) =  -278.280226238     A.U. after    1 cycles
 SCF Done:  E(RM06) =  -278.280226059     A.U. after    6 cycles
 SCF Done:  E(RM06) =  -278.280226095     A.U. after    6 cycles
 SCF Done:  E(RM06) =  -278.280225378     A.U. after    7 cycles
 SCF Done:  E(RM06) =  -278.280225637     A.U. after    7 cycles
 SCF Done:  E(RM06) =  -278.280224519     A.U. after    7 cycles
 SCF Done:  E(RM06) =  -278.280224519     A.U. after    7 cycles
 SCF Done:  E(RM06) =  -278.280211815     A.U. after    7 cycles
 SCF Done:  E(RM06) =  -278.280211443     A.U. after    7 cycles
 SCF Done:  E(RM06) =  -278.280164690     A.U. after    8 cycles
 SCF Done:  E(RM06) =  -278.280164690     A.U. after    8 cycles
 SCF Done:  E(RM06) =  -278.280165021     A.U. after    8 cycles
 SCF Done:  E(RM06) =  -278.280163857     A.U. after    8 cycles
 SCF Done:  E(RM06) =  -278.280162503     A.U. after    8 cycles
 SCF Done:  E(RM06) =  -278.280162414     A.U. after    8 cycles
 SCF Done:  E(RM06) =  -278.280161971     A.U. after    8 cycles
 SCF Done:  E(RM06) =  -278.280161971     A.U. after    8 cycles

 Alpha  occ. eigenvalues --  -24.76678 -24.76665 -10.32522 -10.32481  -1.24943
 Alpha  occ. eigenvalues --   -1.23890  -0.79220  -0.65993  -0.54938  -0.54731
 Alpha  occ. eigenvalues --   -0.52590  -0.49186  -0.48542  -0.42526  -0.37279
 Alpha  occ. eigenvalues --   -0.36771  -0.35433
 Alpha virt. eigenvalues --    0.03799   0.06527   0.07979   0.08790   0.09931
 Alpha virt. eigenvalues --    0.10992   0.15725   0.19734   0.27248   0.28348
 Alpha virt. eigenvalues --    0.29576   0.31695   0.33384   0.33656   0.38267

 Mulliken charges:
               1
     1  C    0.117198
     2  C    0.116000
     3  H    0.082245
     4  F   -0.267016
     5  H    0.067854
     6  F   -0.266900
     7  H    0.068111
     8  H    0.082508
 Sum of Mulliken charges =  -0.00000

 Dipole moment (field-independent basis, Debye):
    X=              0.0088    Y=             -0.0025    Z=             -2.5465  Tot=              2.5465
 Quadrupole moment (field-independent basis, Debye-Ang):
   XX=            -21.7944   YY=            -25.8440   ZZ=            -22.4144
   XY=              1.4983   XZ=             -0.0044   YZ=              0.0030

  Exact polarizability:      26.278       0.308      27.442       0.012      -0.054      26.904
 Approx polarizability:      33.878      -0.786      32.324       0.023      -0.069      35.362

                      1                      2                      3
                      A                      A                      B
 Frequencies --    154.4545               328.7787               504.4703
 Red. masses --      4.6225                 2.5174                 2.2705
 Frc consts  --      0.0650                 0.1603                 0.3404
 IR Inten    --      3.2623                 0.1850                14.4671

                      4                      5                      6
                      A                      B                      B
 Frequencies --    886.0568               910.0257              1121.1562
 Red. masses --      2.3314                 2.0124                 4.2722
 Frc consts  --      1.0784                 0.9819                 3.1640
 IR Inten    --     23.2828                39.7622                64.3008

                      7                      8                      9
                      A                      A                      B
 Frequencies --   1126.4807              1153.6689              1261.5850
 Red. masses --      2.1334                 3.5451                 1.1247
 Frc consts  --      1.5951                 2.7800                 1.0547
 IR Inten    --      3.0783               106.3395                 8.8768

                     10                     11                     12
                      A                      B                      A
 Frequencies --   1300.6094              1389.6873              1431.5553
 Red. masses --      1.0773                 1.2549                 1.5935
 Frc consts  --      1.0737                 1.4279                 1.9240
 IR Inten    --      3.5217                10.8927                19.6929

                     13                     14                     15
                      B                      A                      B
 Frequencies --   1468.2732              1470.3888              3017.9469
 Red. masses --      1.0862                 1.0940                 1.0575
 Frc consts  --      1.3796                 1.3936                 5.6747
 IR Inten    --     10.5093                 0.0290                12.6487

                     16                     17                     18
                      A                      A                      B
 Frequencies --   3024.0792              3072.1487              3083.8009
 Red. masses --      1.0592                 1.1060                 1.1068
 Frc consts  --      5.7070                 6.1505                 6.2017
 IR Inten    --     32.9279                19.7035                35.6000

 - Thermochemistry -
 -------------------
 Temperature   298.150 Kelvin.  Pressure   1.00000 Atm.
 Atom     1 has atomic number  6 and mass  12.00000

 Molecular mass:    66.02811 amu.
 Principal axes and moments of inertia in atomic units:
                           1         2         3
     Eigenvalues --   102.74362 352.56629 404.24541
           X           -0.09095   0.00000   0.99586
           Y            0.99586   0.00000   0.09095
           Z           -0.00000   1.00000  -0.00000
 This molecule is an asymmetric top.
 Rotational symmetry number  2.
 Rotational temperatures (Kelvin)      0.84301     0.24567     0.21426
 Rotational constants (GHZ):          17.56548     5.11887     4.46447
 Zero-point vibrational energy     159732.4 (Joules/Mol)
                                   38.17695 (Kcal/Mol)
 Warning -- explicit consideration of   3 degrees of freedom as
           vibrations may cause significant error
 Vibrational temperatures:    222.23   473.04   725.82  1274.84  1309.32
          (Kelvin)           1613.09  1620.75  1659.87  1815.14  1871.29
                             1999.45  2059.69  2112.52  2115.56  4342.15
                             4350.98  4420.14  4436.90

 Zero-point correction=                           0.060839 (Hartree/Particle)
 Thermal correction to Energy=                    0.065137
 Thermal correction to Enthalpy=                  0.066082
 Thermal correction to Gibbs Free Energy=         0.034535
 Sum of electronic and zero-point Energies=           -278.219387
 Sum of electronic and thermal Energies=              -278.215089
 Sum of electronic and thermal Enthalpies=            -278.214145
 Sum of electronic and thermal Free Energies=         -278.245691

                     E (Thermal)             CV                S
                      KCal/Mol        Cal/Mol-Kelvin    Cal/Mol-Kelvin
 Total                   40.874             13.169             66.395
 Electronic               0.000              0.000              0.000
 Translational            0.889              2.981             38.481
 Rotational               0.889              2.981             22.819
 Vibrational             39.097              7.207              5.095
 Vibration     1          0.620              1.898              2.617
 Vibration     2          0.712              1.618              1.266
 Vibration     3          0.860              1.240              0.647

 ## DEPERTURBED TRANSITIONS MOMENTS ##

 Electric dipole : Fundamental Bands
 ------------------------------------------------------------------------

 ## AFTER VARIATIONAL CORRECTION

 Electric dipole : Fundamental Bands
 ------------------------------------------------------------------------

 Optimization completed.
    -- Stationary point found.
 Normal termination of Gaussian 16 at Tue Jun 23 17:24:12 2020.
