 Gaussian 16, Revision C.01,
 Gaussian 16:  ES64L-G16RevC.01  3-Jul-2019

 -------------------------------------------------------
 # M06/Def2TZVP Freq=(anharmonic,ReadAnharm) Opt=CalcAll
 -------------------------------------------------------

 ---------------------------------------------
 Anharmonic frequencies for ammonia using VPT2
 ---------------------------------------------
 Symbolic Z-matrix:
 Charge =  0 Multiplicity = 1

 SCF Done:  E(RM06) =  -56.5406705786     A.U. after   11 cycles
 SCF Done:  E(RM06) =  -56.5408167062     A.U. after   10 cycles
 Optimization completed.
    -- Stationary point found.
 Normal termination of Gaussian 16 at Tue Jun 23 13:18:22 2020.

 ------------------------------------------------------------------
 #N Geom=AllCheck Guess=TCheck SCRF=Check GenChk RM06/def2TZVP Freq
 ------------------------------------------------------------------

 Structure from the checkpoint file:  "checkpoint.chk"
 ---------------------------------------------
 Anharmonic frequencies for ammonia using VPT2
 ---------------------------------------------
 Charge =  0 Multiplicity = 1

                         Standard orientation:
 ---------------------------------------------------------------------
 Center     Atomic      Atomic             Coordinates (Angstroms)
 Number     Number       Type             X           Y           Z
 ---------------------------------------------------------------------
      1          7           0        0.000016   -0.000004   -0.112351
      2          1           0       -0.463047    0.817647    0.262131
      3          1           0       -0.476697   -0.809749    0.262143
      4          1           0        0.939629   -0.007871    0.262182
 ---------------------------------------------------------------------

 SCF Done:  E(RM06) =  -56.5408167062     A.U. after    1 cycles
 SCF Done:  E(RM06) =  -56.5408115313     A.U. after    7 cycles
 SCF Done:  E(RM06) =  -56.5408082798     A.U. after    7 cycles
 SCF Done:  E(RM06) =  -56.5407979730     A.U. after    7 cycles
 SCF Done:  E(RM06) =  -56.5407986645     A.U. after    7 cycles
 SCF Done:  E(RM06) =  -56.5407983232     A.U. after    7 cycles
 SCF Done:  E(RM06) =  -56.5407982961     A.U. after    7 cycles
 SCF Done:  E(RM06) =  -56.5407411074     A.U. after    7 cycles
 SCF Done:  E(RM06) =  -56.5407286528     A.U. after    7 cycles
 SCF Done:  E(RM06) =  -56.5407277468     A.U. after    7 cycles
 SCF Done:  E(RM06) =  -56.5407286272     A.U. after    7 cycles
 SCF Done:  E(RM06) =  -56.5407274610     A.U. after    7 cycles
 SCF Done:  E(RM06) =  -56.5407288954     A.U. after    7 cycles

 Alpha  occ. eigenvalues --  -14.35834  -0.86616  -0.47144  -0.46906  -0.27958
 Alpha virt. eigenvalues --    0.02501   0.09407   0.09491   0.30341   0.30448
 Alpha virt. eigenvalues --    0.35734   0.41360   0.49317   0.49606   0.49845
 Alpha virt. eigenvalues --    0.91635   0.91644   1.15436   1.22573   1.22876

 Mulliken charges:
               1
     1  N   -0.617821
     2  H    0.204698
     3  H    0.207550
     4  H    0.205573
 Sum of Mulliken charges =  -0.00000

 Dipole moment (field-independent basis, Debye):
    X=             -0.0009    Y=             -0.0030    Z=              1.6772  Tot=              1.6772
 Quadrupole moment (field-independent basis, Debye-Ang):
   XX=             -6.1705   YY=             -6.1664   ZZ=             -9.1551
   XY=              0.0106   XZ=             -0.0018   YZ=             -0.0075

  Exact polarizability:      10.954       0.076      10.986      -0.014      -0.057       9.425
 Approx polarizability:      13.196       0.102      13.241      -0.021      -0.084      10.545

                      1                      2                      3
                      A                      A                      A
 Frequencies --   1003.2520              1649.5953              1650.0150
 Red. masses --      1.1818                 1.0667                 1.0667
 Frc consts  --      0.7009                 1.7102                 1.7111
 IR Inten    --    175.4417                21.2649                21.2683

                      4                      5                      6
                      A                      A                      A
 Frequencies --   3479.7586              3619.1519              3619.3891
 Red. masses --      1.0258                 1.0901                 1.0901
 Frc consts  --      7.3186                 8.4124                 8.4134
 IR Inten    --      0.4584                 4.1940                 4.1578

 - Thermochemistry -
 -------------------
 Temperature   298.150 Kelvin.  Pressure   1.00000 Atm.
 Atom     1 has atomic number  7 and mass  14.00307

 Molecular mass:    17.02655 amu.
 Principal axes and moments of inertia in atomic units:
                           1         2         3
     Eigenvalues --     6.01158   6.01249   9.53326
           X            1.00000   0.00000   0.00001
           Y           -0.00000   1.00000  -0.00000
           Z           -0.00001   0.00000   1.00000
 This molecule is an asymmetric top.
 Rotational symmetry number  1.
 Rotational temperatures (Kelvin)     14.40784    14.40567     9.08545
 Rotational constants (GHZ):         300.21070   300.16534   189.30995
 Zero-point vibrational energy      89846.5 (Joules/Mol)
                                   21.47383 (Kcal/Mol)
 Vibrational temperatures:   1443.46  2373.40  2374.00  5006.60  5207.15
          (Kelvin)           5207.49

 Zero-point correction=                           0.034221 (Hartree/Particle)
 Thermal correction to Energy=                    0.037095
 Thermal correction to Enthalpy=                  0.038039
 Thermal correction to Gibbs Free Energy=         0.015160
 Sum of electronic and zero-point Energies=            -56.506596
 Sum of electronic and thermal Energies=               -56.503722
 Sum of electronic and thermal Enthalpies=             -56.502778
 Sum of electronic and thermal Free Energies=          -56.525657

                     E (Thermal)             CV                S
                      KCal/Mol        Cal/Mol-Kelvin    Cal/Mol-Kelvin
 Total                   23.277              6.423             48.153
 Electronic               0.000              0.000              0.000
 Translational            0.889              2.981             34.441
 Rotational               0.889              2.981             13.608
 Vibrational             21.500              0.462              0.105

 ## DEPERTURBED TRANSITIONS MOMENTS ##

 Electric dipole : Fundamental Bands
 ------------------------------------------------------------------------

 ## AFTER VARIATIONAL CORRECTION

 Electric dipole : Fundamental Bands
 ------------------------------------------------------------------------

 Optimization completed.
    -- Stationary point found.
 Normal termination of Gaussian 16 at Tue Jun 23 13:20:57 2020.
