 Gaussian 16, Revision C.01,
 Gaussian 16:  ES64L-G16RevC.01  3-Jul-2019

 -------------------------------------------------------
 # M06/Def2TZVP Freq=(anharmonic,ReadAnharm) Opt=CalcAll
 -------------------------------------------------------

 --------------------------------------------
 Anharmonic frequencies for ethene using VPT2
 --------------------------------------------
 Symbolic Z-matrix:
 Charge =  0 Multiplicity = 1

 SCF Done:  E(RM06) =  -78.5466678543     A.U. after   11 cycles
 SCF Done:  E(RM06) =  -78.5470613792     A.U. after    8 cycles
 SCF Done:  E(RM06) =  -78.5470620865     A.U. after    6 cycles
 Optimization completed.
    -- Stationary point found.
 Normal termination of Gaussian 16 at Tue Jun 23 13:21:45 2020.

 ------------------------------------------------------------------
 #N Geom=AllCheck Guess=TCheck SCRF=Check GenChk RM06/def2TZVP Freq
 ------------------------------------------------------------------

 Structure from the checkpoint file:  "checkpoint.chk"
 --------------------------------------------
 Anharmonic frequencies for ethene using VPT2
 --------------------------------------------
 Charge =  0 Multiplicity = 1

                         Standard orientation:
 ---------------------------------------------------------------------
 Center     Atomic      Atomic             Coordinates (Angstroms)
 Number     Number       Type             X           Y           Z
 ---------------------------------------------------------------------
      1          6           0       -0.000000    0.659500    0.000000
      2          6           0       -0.000000   -0.659500    0.000000
      3          1           0       -0.920975    1.231667   -0.000000
      4          1           0        0.920975    1.231667    0.000000
      5          1           0       -0.920975   -1.231667    0.000000
      6          1           0        0.920975   -1.231667   -0.000000
 ---------------------------------------------------------------------

 SCF Done:  E(RM06) =  -78.5470620865     A.U. after    1 cycles
 SCF Done:  E(RM06) =  -78.5470576167     A.U. after    6 cycles
 SCF Done:  E(RM06) =  -78.5470576167     A.U. after    6 cycles
 SCF Done:  E(RM06) =  -78.5470557777     A.U. after    7 cycles
 SCF Done:  E(RM06) =  -78.5470557777     A.U. after    7 cycles
 SCF Done:  E(RM06) =  -78.5470556552     A.U. after    6 cycles
 SCF Done:  E(RM06) =  -78.5470556552     A.U. after    6 cycles
 SCF Done:  E(RM06) =  -78.5470425059     A.U. after    7 cycles
 SCF Done:  E(RM06) =  -78.5470427448     A.U. after    7 cycles
 SCF Done:  E(RM06) =  -78.5469960684     A.U. after    8 cycles
 SCF Done:  E(RM06) =  -78.5469960684     A.U. after    8 cycles
 SCF Done:  E(RM06) =  -78.5469947766     A.U. after    7 cycles
 SCF Done:  E(RM06) =  -78.5469961186     A.U. after    7 cycles
 SCF Done:  E(RM06) =  -78.5469925914     A.U. after    7 cycles
 SCF Done:  E(RM06) =  -78.5469925914     A.U. after    7 cycles
 SCF Done:  E(RM06) =  -78.5469915028     A.U. after    7 cycles
 SCF Done:  E(RM06) =  -78.5469915028     A.U. after    7 cycles

 Alpha  occ. eigenvalues --  -10.23567 -10.23468  -0.77409  -0.58964  -0.48250
 Alpha  occ. eigenvalues --   -0.43426  -0.36448  -0.29122
 Alpha virt. eigenvalues --    0.00508   0.06518   0.08056   0.08570   0.12841
 Alpha virt. eigenvalues --    0.19551   0.21377   0.21403   0.22756   0.27209
 Alpha virt. eigenvalues --    0.31308   0.33740   0.37973   0.41734   0.43085

 Mulliken charges:
               1
     1  C   -0.189255
     2  C   -0.189255
     3  H    0.094407
     4  H    0.094848
     5  H    0.094407
     6  H    0.094848
 Sum of Mulliken charges =  -0.00000

 Dipole moment (field-independent basis, Debye):
    X=             -0.0063    Y=             -0.0000    Z=              0.0000  Tot=              0.0063
 Quadrupole moment (field-independent basis, Debye-Ang):
   XX=            -12.3945   YY=            -12.2965   ZZ=            -15.4805
   XY=             -0.0000   XZ=              0.0000   YZ=             -0.0000

  Exact polarizability:      22.737       0.000      34.777      -0.000       0.000      17.341
 Approx polarizability:      29.083       0.000      49.008      -0.000       0.000      22.151

                      1                      2                      3
                     BU                     AU                     BG
 Frequencies --    813.3737               966.2392               975.5909
 Red. masses --      1.0429                 1.1607                 1.5233
 Frc consts  --      0.4065                 0.6385                 0.8542
 IR Inten    --      0.2502                94.8049                 0.0000

                      4                      5                      6
                     AU                     AG                     AG
 Frequencies --   1058.7410              1216.6563              1364.2732
 Red. masses --      1.0078                 1.5318                 1.1481
 Frc consts  --      0.6656                 1.3360                 1.2590
 IR Inten    --      0.0000                 0.0000                 0.0000

                      7                      8                      9
                     BU                     AG                     BU
 Frequencies --   1445.0109              1697.0505              3125.6026
 Red. masses --      1.1115                 3.7422                 1.0481
 Frc consts  --      1.3675                 6.3498                 6.0329
 IR Inten    --      8.5371                 0.0000                15.4929

                     10                     11                     12
                     AG                     AG                     BU
 Frequencies --   3140.2660              3206.8256              3231.8640
 Red. masses --      1.0758                 1.1139                 1.1175
 Frc consts  --      6.2505                 6.7490                 6.8768
 IR Inten    --      0.0000                 0.0000                16.7625

 - Thermochemistry -
 -------------------
 Temperature   298.150 Kelvin.  Pressure   1.00000 Atm.
 Atom     1 has atomic number  6 and mass  12.00000

 Molecular mass:    28.03130 amu.
 Principal axes and moments of inertia in atomic units:
                           1         2         3
     Eigenvalues --    12.21064  59.11561  71.32625
           X           -0.00000   1.00000   0.00000
           Y            1.00000   0.00000   0.00000
           Z           -0.00000  -0.00000   1.00000
 This molecule is an asymmetric top.
 Rotational symmetry number  2.
 Rotational temperatures (Kelvin)      7.09332     1.46516     1.21433
 Rotational constants (GHZ):         147.80073    30.52901    25.30262
 Zero-point vibrational energy     133033.7 (Joules/Mol)
                                   31.79581 (Kcal/Mol)
 Vibrational temperatures:   1170.26  1390.20  1403.66  1523.29  1750.50
          (Kelvin)           1962.88  2079.05  2441.68  4497.05  4518.14
                             4613.91  4649.93

 Zero-point correction=                           0.050670 (Hartree/Particle)
 Thermal correction to Energy=                    0.053721
 Thermal correction to Enthalpy=                  0.054666
 Thermal correction to Gibbs Free Energy=         0.029155
 Sum of electronic and zero-point Energies=            -78.496392
 Sum of electronic and thermal Energies=               -78.493341
 Sum of electronic and thermal Enthalpies=             -78.492396
 Sum of electronic and thermal Free Energies=          -78.517907

                     E (Thermal)             CV                S
                      KCal/Mol        Cal/Mol-Kelvin    Cal/Mol-Kelvin
 Total                   33.711              8.170             53.692
 Electronic               0.000              0.000              0.000
 Translational            0.889              2.981             35.927
 Rotational               0.889              2.981             17.205
 Vibrational             31.933              2.208              0.560

 ## DEPERTURBED TRANSITIONS MOMENTS ##

 Electric dipole : Fundamental Bands
 ------------------------------------------------------------------------

 ## AFTER VARIATIONAL CORRECTION

 Electric dipole : Fundamental Bands
 ------------------------------------------------------------------------

 Optimization completed.
    -- Stationary point found.
 Normal termination of Gaussian 16 at Tue Jun 23 13:41:13 2020.
