 Gaussian 16, Revision C.01,
 Gaussian 16:  ES64L-G16RevC.01  3-Jul-2019

 -------------------------------------------------------
 # M06/Def2TZVP Freq=(anharmonic,ReadAnharm) Opt=CalcAll
 -------------------------------------------------------

 ---------------------------------------------------
 Anharmonic frequencies for fluoromethane using VPT2
 ---------------------------------------------------
 Symbolic Z-matrix:
 Charge =  0 Multiplicity = 1

 SCF Done:  E(RM06) =  -139.733183172     A.U. after   12 cycles
 SCF Done:  E(RM06) =  -139.733391734     A.U. after   10 cycles
 Optimization completed.
    -- Stationary point found.
 Normal termination of Gaussian 16 at Tue Jun 23 13:45:22 2020.

 ------------------------------------------------------------------
 #N Geom=AllCheck Guess=TCheck SCRF=Check GenChk RM06/def2TZVP Freq
 ------------------------------------------------------------------

 Structure from the checkpoint file:  "checkpoint.chk"
 ---------------------------------------------------
 Anharmonic frequencies for fluoromethane using VPT2
 ---------------------------------------------------
 Charge =  0 Multiplicity = 1

                         Standard orientation:
 ---------------------------------------------------------------------
 Center     Atomic      Atomic             Coordinates (Angstroms)
 Number     Number       Type             X           Y           Z
 ---------------------------------------------------------------------
      1          6           0       -0.621202   -0.000002   -0.000033
      2          1           0       -0.988159    0.859767   -0.566278
      3          9           0        0.743526   -0.000001    0.000006
      4          1           0       -0.988175   -0.920407   -0.461243
      5          1           0       -0.988190    0.060658    1.027663
 ---------------------------------------------------------------------

 SCF Done:  E(RM06) =  -139.733391734     A.U. after    1 cycles
 SCF Done:  E(RM06) =  -139.733381547     A.U. after    7 cycles
 SCF Done:  E(RM06) =  -139.733384981     A.U. after    7 cycles
 SCF Done:  E(RM06) =  -139.733382206     A.U. after    6 cycles
 SCF Done:  E(RM06) =  -139.733381962     A.U. after    6 cycles
 SCF Done:  E(RM06) =  -139.733382167     A.U. after    6 cycles
 SCF Done:  E(RM06) =  -139.733381986     A.U. after    6 cycles
 SCF Done:  E(RM06) =  -139.733377441     A.U. after    7 cycles
 SCF Done:  E(RM06) =  -139.733376727     A.U. after    7 cycles
 SCF Done:  E(RM06) =  -139.733377564     A.U. after    7 cycles
 SCF Done:  E(RM06) =  -139.733377560     A.U. after    7 cycles
 SCF Done:  E(RM06) =  -139.733376280     A.U. after    7 cycles
 SCF Done:  E(RM06) =  -139.733331478     A.U. after    8 cycles
 SCF Done:  E(RM06) =  -139.733329233     A.U. after    8 cycles
 SCF Done:  E(RM06) =  -139.733326614     A.U. after    8 cycles
 SCF Done:  E(RM06) =  -139.733326597     A.U. after    8 cycles
 SCF Done:  E(RM06) =  -139.733327207     A.U. after    8 cycles
 SCF Done:  E(RM06) =  -139.733325973     A.U. after    8 cycles

 Alpha  occ. eigenvalues --  -24.75780 -10.30946  -1.23451  -0.71336  -0.51442
 Alpha  occ. eigenvalues --   -0.50104  -0.49993  -0.36216  -0.36120
 Alpha virt. eigenvalues --    0.04814   0.08092   0.10388   0.10506   0.20819
 Alpha virt. eigenvalues --    0.20863   0.29625   0.32160   0.40396   0.40692
 Alpha virt. eigenvalues --    0.43065   0.54516   0.59057   0.59076   0.73115

 Mulliken charges:
               1
     1  C    0.037319
     2  H    0.079819
     3  F   -0.275773
     4  H    0.079344
     5  H    0.079291
 Sum of Mulliken charges =  -0.00000

 Dipole moment (field-independent basis, Debye):
    X=             -1.7132    Y=              0.0069    Z=             -0.0054  Tot=              1.7132
 Quadrupole moment (field-independent basis, Debye-Ang):
   XX=            -12.4365   YY=            -11.8625   ZZ=            -11.8623
   XY=             -0.0053   XZ=              0.0041   YZ=              0.0009

  Exact polarizability:      15.184       0.048      14.909      -0.040       0.071      14.987
 Approx polarizability:      18.729       0.066      18.052      -0.054       0.095      18.154

                      1                      2                      3
                      A                      A                      A
 Frequencies --   1119.5422              1195.0355              1195.4718
 Red. masses --      7.9141                 1.2718                 1.2720
 Frc consts  --      5.8443                 1.0701                 1.0711
 IR Inten    --    123.6539                 1.2350                 1.2244

                      4                      5                      6
                      A                      A                      A
 Frequencies --   1468.8516              1469.3622              1480.6161
 Red. masses --      1.0438                 1.0439                 1.1431
 Frc consts  --      1.3268                 1.3280                 1.4765
 IR Inten    --      4.0536                 4.0455                 3.3884

                      7                      8                      9
                      A                      A                      A
 Frequencies --   3013.8408              3104.4037              3104.8203
 Red. masses --      1.0284                 1.1067                 1.1067
 Frc consts  --      5.5038                 6.2839                 6.2857
 IR Inten    --     32.6729                32.8707                32.8118

 - Thermochemistry -
 -------------------
 Temperature   298.150 Kelvin.  Pressure   1.00000 Atm.
 Atom     1 has atomic number  6 and mass  12.00000

 Molecular mass:    34.02188 amu.
 Principal axes and moments of inertia in atomic units:
                           1         2         3
     Eigenvalues --    11.44318  68.88269  68.88457
           X            1.00000  -0.00000  -0.00001
           Y            0.00000   1.00000  -0.00000
           Z            0.00001   0.00000   1.00000
 This molecule is an asymmetric top.
 Rotational symmetry number  1.
 Rotational temperatures (Kelvin)      7.56904     1.25741     1.25738
 Rotational constants (GHZ):         157.71329    26.20021    26.19950
 Zero-point vibrational energy     102591.4 (Joules/Mol)
                                   24.51994 (Kcal/Mol)
 Vibrational temperatures:   1610.77  1719.39  1720.02  2113.35  2114.08
          (Kelvin)           2130.28  4336.24  4466.54  4467.14

 Zero-point correction=                           0.039075 (Hartree/Particle)
 Thermal correction to Energy=                    0.041981
 Thermal correction to Enthalpy=                  0.042925
 Thermal correction to Gibbs Free Energy=         0.016641
 Sum of electronic and zero-point Energies=           -139.694317
 Sum of electronic and thermal Energies=              -139.691410
 Sum of electronic and thermal Enthalpies=            -139.690466
 Sum of electronic and thermal Free Energies=         -139.716751

                     E (Thermal)             CV                S
                      KCal/Mol        Cal/Mol-Kelvin    Cal/Mol-Kelvin
 Total                   26.344              6.889             55.321
 Electronic               0.000              0.000              0.000
 Translational            0.889              2.981             36.504
 Rotational               0.889              2.981             18.635
 Vibrational             24.566              0.927              0.182

 ## DEPERTURBED TRANSITIONS MOMENTS ##

 Electric dipole : Fundamental Bands
 ------------------------------------------------------------------------

 ## AFTER VARIATIONAL CORRECTION

 Electric dipole : Fundamental Bands
 ------------------------------------------------------------------------

 Optimization completed.
    -- Stationary point found.
 Normal termination of Gaussian 16 at Tue Jun 23 13:55:40 2020.
