 Gaussian 16, Revision C.01,
 Gaussian 16:  ES64L-G16RevC.01  3-Jul-2019

 -------------------------------------------------------
 # M06/Def2TZVP Freq=(anharmonic,ReadAnharm) Opt=CalcAll
 -------------------------------------------------------

 --------------------------------------------------
 Anharmonic frequencies for fluoroethane using VPT2
 --------------------------------------------------
 Symbolic Z-matrix:
 Charge =  0 Multiplicity = 1

 SCF Done:  E(RM06) =  -179.033992077     A.U. after   12 cycles
 SCF Done:  E(RM06) =  -179.034391548     A.U. after   10 cycles
 SCF Done:  E(RM06) =  -179.034392351     A.U. after    7 cycles
 Optimization completed.
    -- Stationary point found.
 Normal termination of Gaussian 16 at Tue Jun 23 14:00:00 2020.

 ------------------------------------------------------------------
 #N Geom=AllCheck Guess=TCheck SCRF=Check GenChk RM06/def2TZVP Freq
 ------------------------------------------------------------------

 Structure from the checkpoint file:  "checkpoint.chk"
 --------------------------------------------------
 Anharmonic frequencies for fluoroethane using VPT2
 --------------------------------------------------
 Charge =  0 Multiplicity = 1

                         Standard orientation:
 ---------------------------------------------------------------------
 Center     Atomic      Atomic             Coordinates (Angstroms)
 Number     Number       Type             X           Y           Z
 ---------------------------------------------------------------------
      1          6           0       -1.181831   -0.218036    0.000000
      2          6           0        0.112658    0.539082    0.000000
      3          1           0       -1.258285   -0.851891   -0.884762
      4          1           0       -2.025417    0.474719   -0.000000
      5          1           0       -1.258285   -0.851891    0.884762
      6          1           0        0.204953    1.176770   -0.886067
      7          9           0        1.171902   -0.338973    0.000000
      8          1           0        0.204953    1.176770    0.886067
 ---------------------------------------------------------------------

 SCF Done:  E(RM06) =  -179.034392351     A.U. after    1 cycles
 SCF Done:  E(RM06) =  -179.034391925     A.U. after    6 cycles
 SCF Done:  E(RM06) =  -179.034391925     A.U. after    6 cycles
 SCF Done:  E(RM06) =  -179.034391185     A.U. after    7 cycles
 SCF Done:  E(RM06) =  -179.034391192     A.U. after    7 cycles
 SCF Done:  E(RM06) =  -179.034388076     A.U. after    7 cycles
 SCF Done:  E(RM06) =  -179.034388076     A.U. after    7 cycles
 SCF Done:  E(RM06) =  -179.034331677     A.U. after    8 cycles
 SCF Done:  E(RM06) =  -179.034330017     A.U. after    8 cycles
 SCF Done:  E(RM06) =  -179.034329084     A.U. after    8 cycles
 SCF Done:  E(RM06) =  -179.034330525     A.U. after    8 cycles
 SCF Done:  E(RM06) =  -179.034328989     A.U. after    8 cycles
 SCF Done:  E(RM06) =  -179.034328989     A.U. after    8 cycles
 SCF Done:  E(RM06) =  -179.034325720     A.U. after    8 cycles
 SCF Done:  E(RM06) =  -179.034326727     A.U. after    8 cycles
 SCF Done:  E(RM06) =  -179.034326118     A.U. after    8 cycles
 SCF Done:  E(RM06) =  -179.034326118     A.U. after    8 cycles

 Alpha  occ. eigenvalues --  -24.75182 -10.31133 -10.23616  -1.22764  -0.78012
 Alpha  occ. eigenvalues --   -0.64345  -0.51801  -0.51158  -0.47281  -0.41267
 Alpha  occ. eigenvalues --   -0.40757  -0.35670  -0.34409
 Alpha virt. eigenvalues --    0.03925   0.07254   0.08780   0.09999   0.10666
 Alpha virt. eigenvalues --    0.11992   0.16947   0.19599   0.22836   0.25578
 Alpha virt. eigenvalues --    0.27444   0.30766   0.34601   0.36701   0.38502

 Mulliken charges:
               1
     1  C   -0.251070
     2  C    0.129828
     3  H    0.094567
     4  H    0.080210
     5  H    0.094625
     6  H    0.066251
     7  F   -0.280751
     8  H    0.066339
 Sum of Mulliken charges =  -0.00000

 Dipole moment (field-independent basis, Debye):
    X=             -1.5331    Y=              0.9761    Z=             -0.0074  Tot=              1.8175
 Quadrupole moment (field-independent basis, Debye-Ang):
   XX=            -20.4139   YY=            -18.4549   ZZ=            -18.2510
   XY=              0.6902   XZ=              0.0082   YZ=             -0.0017

  Exact polarizability:      27.634       0.615      26.774      -0.024      -0.082      25.689
 Approx polarizability:      33.192      -1.007      34.270      -0.025      -0.119      33.672

                      1                      2                      3
                      A                      A                      A
 Frequencies --    250.9403               414.7214               795.4530
 Red. masses --      1.1304                 2.7803                 1.0806
 Frc consts  --      0.0419                 0.2817                 0.4029
 IR Inten    --      0.4348                 5.3588                 0.3093

                      4                      5                      6
                      A                      A                      A
 Frequencies --    899.4260              1096.7081              1137.2758
 Red. masses --      1.9887                 3.0013                 2.7542
 Frc consts  --      0.9479                 2.1269                 2.0988
 IR Inten    --     14.0835                58.4948                65.4342

                      7                      8                      9
                      A                      A                      A
 Frequencies --   1181.0785              1292.8084              1384.7682
 Red. masses --      1.5869                 1.0865                 1.2230
 Frc consts  --      1.3042                 1.0699                 1.3817
 IR Inten    --      5.5300                 0.3916                 1.4712

                     10                     11                     12
                      A                      A                      A
 Frequencies --   1415.1089              1459.9453              1476.2542
 Red. masses --      1.3814                 1.0383                 1.0637
 Frc consts  --      1.6298                 1.3038                 1.3659
 IR Inten    --     32.4800                 5.9273                 1.2787

                     13                     14                     15
                      A                      A                      A
 Frequencies --   1502.1124              3016.7818              3042.2607
 Red. masses --      1.0884                 1.0577                 1.0361
 Frc consts  --      1.4469                 5.6714                 5.6500
 IR Inten    --      1.8890                42.3255                10.3674

                     16                     17                     18
                      A                      A                      A
 Frequencies --   3062.0021              3128.0293              3130.5807
 Red. masses --      1.1073                 1.1017                 1.1041
 Frc consts  --      6.1170                 6.3511                 6.3755
 IR Inten    --     26.9565                17.7326                23.2517

 - Thermochemistry -
 -------------------
 Temperature   298.150 Kelvin.  Pressure   1.00000 Atm.
 Atom     1 has atomic number  6 and mass  12.00000

 Molecular mass:    48.03753 amu.
 Principal axes and moments of inertia in atomic units:
                           1         2         3
     Eigenvalues --    49.09279 189.58118 216.10216
           X            0.99884   0.04807  -0.00000
           Y           -0.04807   0.99884   0.00000
           Z            0.00000  -0.00000   1.00000
 This molecule is an asymmetric top.
 Rotational symmetry number  1.
 Rotational temperatures (Kelvin)      1.76429     0.45687     0.40080
 Rotational constants (GHZ):          36.76184     9.51962     8.35133
 Zero-point vibrational energy     177563.2 (Joules/Mol)
                                   42.43863 (Kcal/Mol)
 Warning -- explicit consideration of   2 degrees of freedom as
           vibrations may cause significant error
 Vibrational temperatures:    361.05   596.69  1144.48  1294.07  1577.92
          (Kelvin)           1636.29  1699.31  1860.06  1992.37  2036.03
                             2100.54  2124.00  2161.20  4340.48  4377.13
                             4405.54  4500.54  4504.21

 Zero-point correction=                           0.067630 (Hartree/Particle)
 Thermal correction to Energy=                    0.071485
 Thermal correction to Enthalpy=                  0.072429
 Thermal correction to Gibbs Free Energy=         0.042492
 Sum of electronic and zero-point Energies=           -178.966762
 Sum of electronic and thermal Energies=              -178.962908
 Sum of electronic and thermal Enthalpies=            -178.961964
 Sum of electronic and thermal Free Energies=         -178.991900

                     E (Thermal)             CV                S
                      KCal/Mol        Cal/Mol-Kelvin    Cal/Mol-Kelvin
 Total                   44.857             11.676             63.006
 Electronic               0.000              0.000              0.000
 Translational            0.889              2.981             37.533
 Rotational               0.889              2.981             22.224
 Vibrational             43.080              5.715              3.249
 Vibration     1          0.663              1.761              1.724
 Vibration     2          0.778              1.438              0.910

 ## DEPERTURBED TRANSITIONS MOMENTS ##

 Electric dipole : Fundamental Bands
 ------------------------------------------------------------------------

 ## AFTER VARIATIONAL CORRECTION

 Electric dipole : Fundamental Bands
 ------------------------------------------------------------------------

 Optimization completed.
    -- Stationary point found.
 Normal termination of Gaussian 16 at Tue Jun 23 15:18:25 2020.
