 Gaussian 16, Revision C.01,
 Gaussian 16:  ES64L-G16RevC.01  3-Jul-2019

 -------------------------------------------------------
 # M06/Def2TZVP Freq=(anharmonic,ReadAnharm) Opt=CalcAll
 -------------------------------------------------------

 ----------------------------------------------
 Anharmonic frequencies for methanal using VPT2
 ----------------------------------------------
 Symbolic Z-matrix:
 Charge =  0 Multiplicity = 1

 SCF Done:  E(RM06) =  -114.483004262     A.U. after   12 cycles
 SCF Done:  E(RM06) =  -114.484807887     A.U. after   12 cycles
 SCF Done:  E(RM06) =  -114.484833305     A.U. after    8 cycles
 Optimization completed.
    -- Stationary point found.
 Normal termination of Gaussian 16 at Tue Jun 23 15:19:00 2020.

 ------------------------------------------------------------------
 #N Geom=AllCheck Guess=TCheck SCRF=Check GenChk RM06/def2TZVP Freq
 ------------------------------------------------------------------

 Structure from the checkpoint file:  "checkpoint.chk"
 ----------------------------------------------
 Anharmonic frequencies for methanal using VPT2
 ----------------------------------------------
 Charge =  0 Multiplicity = 1

                         Standard orientation:
 ---------------------------------------------------------------------
 Center     Atomic      Atomic             Coordinates (Angstroms)
 Number     Number       Type             X           Y           Z
 ---------------------------------------------------------------------
      1          6           0       -0.000000   -0.520298   -0.000000
      2          8           0       -0.000000    0.670004    0.000000
      3          1           0        0.937928   -1.119122   -0.000000
      4          1           0       -0.937927   -1.119122    0.000000
 ---------------------------------------------------------------------

 SCF Done:  E(RM06) =  -114.484833305     A.U. after    1 cycles
 SCF Done:  E(RM06) =  -114.484823604     A.U. after    7 cycles
 SCF Done:  E(RM06) =  -114.484823604     A.U. after    7 cycles
 SCF Done:  E(RM06) =  -114.484822726     A.U. after    7 cycles
 SCF Done:  E(RM06) =  -114.484822725     A.U. after    7 cycles
 SCF Done:  E(RM06) =  -114.484819845     A.U. after    7 cycles
 SCF Done:  E(RM06) =  -114.484815727     A.U. after    7 cycles
 SCF Done:  E(RM06) =  -114.484809368     A.U. after    8 cycles
 SCF Done:  E(RM06) =  -114.484809831     A.U. after    8 cycles
 SCF Done:  E(RM06) =  -114.484774310     A.U. after    8 cycles
 SCF Done:  E(RM06) =  -114.484782890     A.U. after    8 cycles
 SCF Done:  E(RM06) =  -114.484776429     A.U. after    8 cycles
 SCF Done:  E(RM06) =  -114.484776421     A.U. after    8 cycles

 Alpha  occ. eigenvalues --  -19.23000 -10.33953  -1.09349  -0.64757  -0.51373
 Alpha  occ. eigenvalues --   -0.47371  -0.42830  -0.28860
 Alpha virt. eigenvalues --   -0.04399   0.05340   0.10940   0.11183   0.21066
 Alpha virt. eigenvalues --    0.21113   0.25668   0.37772   0.40353   0.40577
 Alpha virt. eigenvalues --    0.48597   0.50933   0.57590   0.59162   0.68220

 Mulliken charges:
               1
     1  C    0.189999
     2  O   -0.299710
     3  H    0.053894
     4  H    0.055817
 Sum of Mulliken charges =  -0.00000

 Dipole moment (field-independent basis, Debye):
    X=             -0.0178    Y=             -2.2191    Z=             -0.0000  Tot=              2.2191
 Quadrupole moment (field-independent basis, Debye-Ang):
   XX=            -11.6608   YY=            -12.2206   ZZ=            -11.4823
   XY=              0.0193   XZ=              0.0000   YZ=             -0.0000

  Exact polarizability:      16.378      -0.133      20.794      -0.000       0.000       9.898
 Approx polarizability:      19.682      -0.193      31.073      -0.000       0.000      12.843

                      1                      2                      3
                     A"                     A'                     A'
 Frequencies --   1198.1755              1251.2447              1515.4761
 Red. masses --      1.3758                 1.3544                 1.0854
 Frc consts  --      1.1637                 1.2494                 1.4687
 IR Inten    --      1.0815                14.0929                 6.0902

                      4                      5                      6
                     A'                     A'                     A'
 Frequencies --   1872.9979              2845.1638              2901.1030
 Red. masses --      8.3441                 1.0462                 1.1188
 Frc consts  --     17.2467                 4.9896                 5.5481
 IR Inten    --    129.3207                65.8966               133.4742

 - Thermochemistry -
 -------------------
 Temperature   298.150 Kelvin.  Pressure   1.00000 Atm.
 Atom     1 has atomic number  6 and mass  12.00000

 Molecular mass:    30.01056 amu.
 Principal axes and moments of inertia in atomic units:
                           1         2         3
     Eigenvalues --     6.33215  45.67164  52.00379
           X           -0.00000   1.00000   0.00000
           Y            1.00000   0.00000  -0.00000
           Z            0.00000  -0.00000   1.00000
 This molecule is an asymmetric top.
 Rotational symmetry number  1.
 Rotational temperatures (Kelvin)     13.67843     1.89645     1.66553
 Rotational constants (GHZ):         285.01227    39.51558    34.70403
 Zero-point vibrational energy      69288.7 (Joules/Mol)
                                   16.56039 (Kcal/Mol)
 Vibrational temperatures:   1723.91  1800.26  2180.43  2694.83  4093.56
          (Kelvin)           4174.04

 Zero-point correction=                           0.026391 (Hartree/Particle)
 Thermal correction to Energy=                    0.029259
 Thermal correction to Enthalpy=                  0.030204
 Thermal correction to Gibbs Free Energy=         0.004747
 Sum of electronic and zero-point Energies=           -114.458443
 Sum of electronic and thermal Energies=              -114.455574
 Sum of electronic and thermal Enthalpies=            -114.454630
 Sum of electronic and thermal Free Energies=         -114.480087

                     E (Thermal)             CV                S
                      KCal/Mol        Cal/Mol-Kelvin    Cal/Mol-Kelvin
 Total                   18.361              6.432             53.579
 Electronic               0.000              0.000              0.000
 Translational            0.889              2.981             36.130
 Rotational               0.889              2.981             17.360
 Vibrational             16.583              0.471              0.089

 ## DEPERTURBED TRANSITIONS MOMENTS ##

 Electric dipole : Fundamental Bands
 ------------------------------------------------------------------------

 ## AFTER VARIATIONAL CORRECTION

 Electric dipole : Fundamental Bands
 ------------------------------------------------------------------------

 Optimization completed.
    -- Stationary point found.
 Normal termination of Gaussian 16 at Tue Jun 23 15:23:37 2020.
