 Gaussian 16, Revision C.01,
 Gaussian 16:  ES64L-G16RevC.01  3-Jul-2019

 -------------------------------------------------------
 # M06/Def2TZVP Freq=(anharmonic,ReadAnharm) Opt=CalcAll
 -------------------------------------------------------

 -------------------------------------------------
 Anharmonic frequencies for oxalic acid using VPT2
 -------------------------------------------------
 Symbolic Z-matrix:
 Charge =  0 Multiplicity = 1

 SCF Done:  E(RM06) =  -378.308798347     A.U. after   12 cycles
 SCF Done:  E(RM06) =  -378.313524918     A.U. after   12 cycles
 SCF Done:  E(RM06) =  -378.313549183     A.U. after    8 cycles
 SCF Done:  E(RM06) =  -378.313549291     A.U. after    7 cycles
 Optimization completed.
    -- Stationary point found.
 Normal termination of Gaussian 16 at Thu Jun 18 15:32:54 2020.

 ------------------------------------------------------------------
 #N Geom=AllCheck Guess=TCheck SCRF=Check GenChk RM06/def2TZVP Freq
 ------------------------------------------------------------------

 Structure from the checkpoint file:  "/jobfs/7276286.gadi-pbs/Gau-27678.chk"
 -------------------------------------------------
 Anharmonic frequencies for oxalic acid using VPT2
 -------------------------------------------------
 Charge =  0 Multiplicity = 1

                         Standard orientation:
 ---------------------------------------------------------------------
 Center     Atomic      Atomic             Coordinates (Angstroms)
 Number     Number       Type             X           Y           Z
 ---------------------------------------------------------------------
      1          6           0       -0.751564   -0.161542   -0.000002
      2          6           0        0.751564    0.161542   -0.000002
      3          8           0       -1.143295   -1.291257   -0.000018
      4          8           0       -1.507109    0.913123    0.000018
      5          1           0       -0.908646    1.683110    0.000015
      6          8           0        1.507109   -0.913123    0.000018
      7          8           0        1.143295    1.291257   -0.000018
      8          1           0        0.908646   -1.683110    0.000015
 ---------------------------------------------------------------------

 SCF Done:  E(RM06) =  -378.313549291     A.U. after    1 cycles
 SCF Done:  E(RM06) =  -378.313549184     A.U. after    6 cycles
 SCF Done:  E(RM06) =  -378.313549177     A.U. after    6 cycles
 SCF Done:  E(RM06) =  -378.313548768     A.U. after    7 cycles
 SCF Done:  E(RM06) =  -378.313548768     A.U. after    7 cycles
 SCF Done:  E(RM06) =  -378.313548145     A.U. after    7 cycles
 SCF Done:  E(RM06) =  -378.313534929     A.U. after    8 cycles
 SCF Done:  E(RM06) =  -378.313534866     A.U. after    8 cycles
 SCF Done:  E(RM06) =  -378.313525287     A.U. after    8 cycles
 SCF Done:  E(RM06) =  -378.313525549     A.U. after    8 cycles
 SCF Done:  E(RM06) =  -378.313524780     A.U. after    8 cycles
 SCF Done:  E(RM06) =  -378.313524780     A.U. after    8 cycles
 SCF Done:  E(RM06) =  -378.313460554     A.U. after    8 cycles
 SCF Done:  E(RM06) =  -378.313457302     A.U. after    8 cycles
 SCF Done:  E(RM06) =  -378.313458674     A.U. after    8 cycles
 SCF Done:  E(RM06) =  -378.313458674     A.U. after    8 cycles

 Alpha  occ. eigenvalues --  -19.29342 -19.29294 -19.24199 -19.24135 -10.41162
 Alpha  occ. eigenvalues --  -10.41110  -1.19034  -1.16011  -1.10816  -1.08574
 Alpha  occ. eigenvalues --   -0.72346  -0.66293  -0.65993  -0.53704  -0.52580
 Alpha  occ. eigenvalues --   -0.50193  -0.49549  -0.48153  -0.42351  -0.39391
 Alpha  occ. eigenvalues --   -0.38950  -0.37923  -0.31849
 Alpha virt. eigenvalues --   -0.07996   0.02067   0.05205   0.06772   0.12721
 Alpha virt. eigenvalues --    0.13160   0.18350   0.20814   0.22766   0.23586
 Alpha virt. eigenvalues --    0.25551   0.25678   0.29784   0.30742   0.31659

 Mulliken charges:
               1
     1  C    0.411675
     2  C    0.411036
     3  O   -0.395907
     4  O   -0.374090
     5  H    0.358204
     6  O   -0.377598
     7  O   -0.395698
     8  H    0.362378
 Sum of Mulliken charges =  -0.00000

 Dipole moment (field-independent basis, Debye):
    X=             -0.0151    Y=             -0.0216    Z=              0.0000  Tot=              0.0264
 Quadrupole moment (field-independent basis, Debye-Ang):
   XX=            -40.6168   YY=            -31.5631   ZZ=            -31.3336
   XY=             -5.3129   XZ=             -0.0000   YZ=             -0.0000

  Exact polarizability:      36.540       0.629      46.408       0.000      -0.000      21.706
 Approx polarizability:      45.586       2.773      73.723       0.000      -0.000      29.998

                      1                      2                      3
                      A                      A                      A
 Frequencies --    128.1423               278.1774               418.0498
 Red. masses --     10.7501                 6.3227                 6.5746
 Frc consts  --      0.1040                 0.2883                 0.6770
 IR Inten    --      6.6251                55.3021                 0.0000

                      4                      5                      6
                      A                      A                      A
 Frequencies --    470.6610               573.6966               682.2854
 Red. masses --     12.6108                 8.1267                 7.8849
 Frc consts  --      1.6459                 1.5759                 2.1626
 IR Inten    --     59.1679                 0.0000                24.0556

                      7                      8                      9
                      A                      A                      A
 Frequencies --    710.7299               714.1651               843.1451
 Red. masses --      1.1090                 1.0645                 9.5419
 Frc consts  --      0.3301                 0.3199                 3.9966
 IR Inten    --      0.0000               191.6931                 0.0000

                     10                     11                     12
                      A                      A                      A
 Frequencies --    851.5304              1227.0070              1231.6357
 Red. masses --     10.3578                 1.5911                 2.1852
 Frc consts  --      4.4250                 1.4114                 1.9530
 IR Inten    --      0.0000                 0.0000                 5.9213

                     13                     14                     15
                      A                      A                      A
 Frequencies --   1340.4291              1459.5162              1879.6085
 Red. masses --      2.2833                 3.6521                11.9714
 Frc consts  --      2.4171                 4.5836                24.9190
 IR Inten    --    833.5483                 0.0000                 0.0000

                     16                     17                     18
                      A                      A                      A
 Frequencies --   1904.5269              3656.5764              3661.7086
 Red. masses --      9.5975                 1.0640                 1.0653
 Frc consts  --     20.5109                 8.3822                 8.4161
 IR Inten    --    542.4799                 0.0000               294.4415

 - Thermochemistry -
 -------------------
 Temperature   298.150 Kelvin.  Pressure   1.00000 Atm.
 Atom     1 has atomic number  6 and mass  12.00000

 Molecular mass:    89.99531 amu.
 Principal axes and moments of inertia in atomic units:
                           1         2         3
     Eigenvalues --   307.59763 463.90796 771.50559
           X            0.99758  -0.06948  -0.00000
           Y            0.06948   0.99758   0.00000
           Z            0.00000  -0.00000   1.00000
 This molecule is an asymmetric top.
 Rotational symmetry number  1.
 Rotational temperatures (Kelvin)      0.28158     0.18670     0.11227
 Rotational constants (GHZ):           5.86721     3.89030     2.33925
 Zero-point vibrational energy     131778.2 (Joules/Mol)
                                   31.49574 (Kcal/Mol)
 Warning -- explicit consideration of   5 degrees of freedom as
           vibrations may cause significant error
 Vibrational temperatures:    184.37   400.24   601.48   677.18   825.42
          (Kelvin)            981.66  1022.58  1027.52  1213.10  1225.16
                             1765.39  1772.05  1928.58  2099.92  2704.34
                             2740.19  5261.00  5268.38

 Zero-point correction=                           0.050192 (Hartree/Particle)
 Thermal correction to Energy=                    0.055383
 Thermal correction to Enthalpy=                  0.056327
 Thermal correction to Gibbs Free Energy=         0.021345
 Sum of electronic and zero-point Energies=           -378.263358
 Sum of electronic and thermal Energies=              -378.258167
 Sum of electronic and thermal Enthalpies=            -378.257223
 Sum of electronic and thermal Free Energies=         -378.292204

                     E (Thermal)             CV                S
                      KCal/Mol        Cal/Mol-Kelvin    Cal/Mol-Kelvin
 Total                   34.753             17.686             73.625
 Electronic               0.000              0.000              0.000
 Translational            0.889              2.981             39.404
 Rotational               0.889              2.981             26.201
 Vibrational             32.976             11.724              8.020
 Vibration     1          0.611              1.925              2.974
 Vibration     2          0.679              1.714              1.545
 Vibration     3          0.781              1.431              0.899
 Vibration     4          0.828              1.315              0.736
 Vibration     5          0.930              1.088              0.497

 ## DEPERTURBED TRANSITIONS MOMENTS ##

 Electric dipole : Fundamental Bands
 ------------------------------------------------------------------------

 ## AFTER VARIATIONAL CORRECTION

 Electric dipole : Fundamental Bands
 ------------------------------------------------------------------------

 Optimization completed.
    -- Stationary point found.
 Normal termination of Gaussian 16 at Fri Jun 19 04:17:43 2020.
