 Gaussian 16, Revision C.01,
 Gaussian 16:  ES64L-G16RevC.01  3-Jul-2019

 -------------------------------------------------------
 # M06/Def2TZVP Freq=(anharmonic,ReadAnharm) Opt=CalcAll
 -------------------------------------------------------

 -------------------------------------------------------------
 Anharmonic frequencies for phosphorous trifluoride using VPT2
 -------------------------------------------------------------
 Symbolic Z-matrix:
 Charge =  0 Multiplicity = 1

 SCF Done:  E(RM06) =  -641.028117492     A.U. after   12 cycles
 SCF Done:  E(RM06) =  -641.029580319     A.U. after   11 cycles
 SCF Done:  E(RM06) =  -641.029580920     A.U. after    7 cycles
 Optimization completed.
    -- Stationary point found.
 Normal termination of Gaussian 16 at Tue Jun 23 17:26:29 2020.

 ------------------------------------------------------------------
 #N Geom=AllCheck Guess=TCheck SCRF=Check GenChk RM06/def2TZVP Freq
 ------------------------------------------------------------------

 Structure from the checkpoint file:  "checkpoint.chk"
 -------------------------------------------------------------
 Anharmonic frequencies for phosphorous trifluoride using VPT2
 -------------------------------------------------------------
 Charge =  0 Multiplicity = 1

                         Standard orientation:
 ---------------------------------------------------------------------
 Center     Atomic      Atomic             Coordinates (Angstroms)
 Number     Number       Type             X           Y           Z
 ---------------------------------------------------------------------
      1         15           0        0.000043    0.000023    0.501186
      2          9           0       -0.457278   -1.279671   -0.278414
      3          9           0       -0.879657    1.035795   -0.278430
      4          9           0        1.336864    0.243838   -0.278466
 ---------------------------------------------------------------------

 SCF Done:  E(RM06) =  -641.029580920     A.U. after    1 cycles
 SCF Done:  E(RM06) =  -641.029580083     A.U. after    6 cycles
 SCF Done:  E(RM06) =  -641.029580126     A.U. after    6 cycles
 SCF Done:  E(RM06) =  -641.029580018     A.U. after    6 cycles
 SCF Done:  E(RM06) =  -641.029580189     A.U. after    6 cycles
 SCF Done:  E(RM06) =  -641.029579400     A.U. after    6 cycles
 SCF Done:  E(RM06) =  -641.029579197     A.U. after    6 cycles
 SCF Done:  E(RM06) =  -641.029575696     A.U. after    7 cycles
 SCF Done:  E(RM06) =  -641.029576019     A.U. after    7 cycles
 SCF Done:  E(RM06) =  -641.029575712     A.U. after    7 cycles
 SCF Done:  E(RM06) =  -641.029575996     A.U. after    7 cycles
 SCF Done:  E(RM06) =  -641.029575506     A.U. after    7 cycles
 SCF Done:  E(RM06) =  -641.029575271     A.U. after    7 cycles

 Alpha  occ. eigenvalues --  -77.38299 -24.81374 -24.81373 -24.81373  -6.78679
 Alpha  occ. eigenvalues --   -4.90804  -4.90804  -4.90021  -1.32313  -1.27213
 Alpha  occ. eigenvalues --   -1.27212  -0.69864  -0.58760  -0.58759  -0.55144
 Alpha  occ. eigenvalues --   -0.51481  -0.51481  -0.47442  -0.47441  -0.46033
 Alpha  occ. eigenvalues --   -0.33600
 Alpha virt. eigenvalues --   -0.00178  -0.00177   0.10901   0.22027   0.22027
 Alpha virt. eigenvalues --    0.22726   0.25653   0.36785   0.36787   0.36803
 Alpha virt. eigenvalues --    0.43822   0.43823   0.54046   0.54271   0.54273

 Mulliken charges:
               1
     1  P    0.745640
     2  F   -0.248566
     3  F   -0.248570
     4  F   -0.248504
 Sum of Mulliken charges =  -0.00000

 Dipole moment (field-independent basis, Debye):
    X=              0.0002    Y=              0.0000    Z=              1.0472  Tot=              1.0472
 Quadrupole moment (field-independent basis, Debye-Ang):
   XX=            -27.5300   YY=            -27.5297   ZZ=            -26.7409
   XY=              0.0001   XZ=             -0.0001   YZ=             -0.0001

  Exact polarizability:      23.509       0.006      23.521      -0.012       0.013      19.950
 Approx polarizability:      31.931      -0.000      31.930      -0.001      -0.000      24.218

                      1                      2                      3
                      A                      A                      A
 Frequencies --    347.2812               347.5534               489.8839
 Red. masses --     19.8137                19.8145                21.1107
 Frc consts  --      1.4079                 1.4102                 2.9850
 IR Inten    --      4.8380                 4.8419                27.7561

                      4                      5                      6
                      A                      A                      A
 Frequencies --    865.4519               865.8494               904.9038
 Red. masses --     22.6767                22.6761                22.3626
 Frc consts  --     10.0073                10.0162                10.7889
 IR Inten    --    206.3477               206.3763               150.4983

 - Thermochemistry -
 -------------------
 Temperature   298.150 Kelvin.  Pressure   1.00000 Atm.
 Atom     1 has atomic number 15 and mass  30.97376

 Molecular mass:    87.96897 amu.
 Principal axes and moments of inertia in atomic units:
                           1         2         3
     Eigenvalues --   231.47980 231.49479 375.85820
           X            1.00000   0.00000   0.00000
           Y           -0.00000   1.00000   0.00000
           Z           -0.00000  -0.00000   1.00000
 This molecule is an asymmetric top.
 Rotational symmetry number  1.
 Rotational temperatures (Kelvin)      0.37417     0.37415     0.23044
 Rotational constants (GHZ):           7.79654     7.79603     4.80165
 Zero-point vibrational energy      22854.2 (Joules/Mol)
                                    5.46228 (Kcal/Mol)
 Warning -- explicit consideration of   3 degrees of freedom as
           vibrations may cause significant error
 Vibrational temperatures:    499.66   500.05   704.83  1245.19  1245.76
          (Kelvin)           1301.95

 Zero-point correction=                           0.008705 (Hartree/Particle)
 Thermal correction to Energy=                    0.012673
 Thermal correction to Enthalpy=                  0.013617
 Thermal correction to Gibbs Free Energy=        -0.018381
 Sum of electronic and zero-point Energies=           -641.020876
 Sum of electronic and thermal Energies=              -641.016908
 Sum of electronic and thermal Enthalpies=            -641.015964
 Sum of electronic and thermal Free Energies=         -641.047962

                     E (Thermal)             CV                S
                      KCal/Mol        Cal/Mol-Kelvin    Cal/Mol-Kelvin
 Total                    7.953             11.986             67.346
 Electronic               0.000              0.000              0.000
 Translational            0.889              2.981             39.336
 Rotational               0.889              2.981             24.514
 Vibrational              6.175              6.024              3.497
 Vibration     1          0.725              1.581              1.178
 Vibration     2          0.725              1.580              1.177
 Vibration     3          0.846              1.272              0.684

 ## DEPERTURBED TRANSITIONS MOMENTS ##

 Electric dipole : Fundamental Bands
 ------------------------------------------------------------------------

 ## AFTER VARIATIONAL CORRECTION

 Electric dipole : Fundamental Bands
 ------------------------------------------------------------------------

 Optimization completed.
    -- Stationary point found.
 Normal termination of Gaussian 16 at Tue Jun 23 17:39:22 2020.
