 Gaussian 16, Revision C.01,
 Gaussian 16:  ES64L-G16RevC.01  3-Jul-2019

 -------------------------------------------------------
 # M06/Def2TZVP Freq=(anharmonic,ReadAnharm) Opt=CalcAll
 -------------------------------------------------------

 -----------------------------------------------
 Anharmonic frequencies for phosphine using VPT2
 -----------------------------------------------
 Symbolic Z-matrix:
 Charge =  0 Multiplicity = 1

 SCF Done:  E(RM06) =  -343.133223317     A.U. after   11 cycles
 SCF Done:  E(RM06) =  -343.133328213     A.U. after    9 cycles
 Optimization completed.
    -- Stationary point found.
 Normal termination of Gaussian 16 at Tue Jun 23 13:41:34 2020.

 ------------------------------------------------------------------
 #N Geom=AllCheck Guess=TCheck SCRF=Check GenChk RM06/def2TZVP Freq
 ------------------------------------------------------------------

 Structure from the checkpoint file:  "checkpoint.chk"
 -----------------------------------------------
 Anharmonic frequencies for phosphine using VPT2
 -----------------------------------------------
 Charge =  0 Multiplicity = 1

                         Standard orientation:
 ---------------------------------------------------------------------
 Center     Atomic      Atomic             Coordinates (Angstroms)
 Number     Number       Type             X           Y           Z
 ---------------------------------------------------------------------
      1         15           0        0.000010    0.000030   -0.128486
      2          1           0       -0.946381   -0.722502    0.642259
      3          1           0        1.098745   -0.458442    0.642419
      4          1           0       -0.152521    1.180496    0.642614
 ---------------------------------------------------------------------

 SCF Done:  E(RM06) =  -343.133328213     A.U. after    1 cycles
 SCF Done:  E(RM06) =  -343.133320732     A.U. after    7 cycles
 SCF Done:  E(RM06) =  -343.133321308     A.U. after    7 cycles
 SCF Done:  E(RM06) =  -343.133319324     A.U. after    6 cycles
 SCF Done:  E(RM06) =  -343.133319512     A.U. after    6 cycles
 SCF Done:  E(RM06) =  -343.133319353     A.U. after    6 cycles
 SCF Done:  E(RM06) =  -343.133319430     A.U. after    6 cycles
 SCF Done:  E(RM06) =  -343.133289321     A.U. after    8 cycles
 SCF Done:  E(RM06) =  -343.133288359     A.U. after    8 cycles
 SCF Done:  E(RM06) =  -343.133288316     A.U. after    8 cycles
 SCF Done:  E(RM06) =  -343.133288867     A.U. after    7 cycles
 SCF Done:  E(RM06) =  -343.133288515     A.U. after    7 cycles
 SCF Done:  E(RM06) =  -343.133288561     A.U. after    8 cycles

 Alpha  occ. eigenvalues --  -77.22588  -6.64992  -4.76872  -4.76869  -4.76452
 Alpha  occ. eigenvalues --   -0.65739  -0.39364  -0.39221  -0.28643
 Alpha virt. eigenvalues --    0.02798   0.02911   0.04488   0.18629   0.18663
 Alpha virt. eigenvalues --    0.22995   0.25717   0.25728   0.26301   0.33551
 Alpha virt. eigenvalues --    0.33612   0.40785   0.53401   0.58063   0.58242

 Mulliken charges:
               1
     1  P   -0.134851
     2  H    0.044801
     3  H    0.045633
     4  H    0.044418
 Sum of Mulliken charges =  -0.00000

 Dipole moment (field-independent basis, Debye):
    X=              0.0088    Y=             -0.0077    Z=              0.5430  Tot=              0.5432
 Quadrupole moment (field-independent basis, Debye-Ang):
   XX=            -14.6830   YY=            -14.6865   ZZ=            -16.8217
   XY=             -0.0009   XZ=             -0.0023   YZ=              0.0025

  Exact polarizability:      26.046       0.042      26.214      -0.087       0.079      25.249
 Approx polarizability:      38.200       0.071      38.480      -0.164       0.143      34.254

                      1                      2                      3
                      A                      A                      A
 Frequencies --   1031.8046              1140.8392              1142.5575
 Red. masses --      1.0750                 1.0252                 1.0253
 Frc consts  --      0.6743                 0.7862                 0.7886
 IR Inten    --     17.4634                 8.7043                 8.7464

                      4                      5                      6
                      A                      A                      A
 Frequencies --   2413.8844              2421.4793              2423.1159
 Red. masses --      1.0323                 1.0408                 1.0408
 Frc consts  --      3.5440                 3.5956                 3.6005
 IR Inten    --     32.1558                59.1645                59.4719

 - Thermochemistry -
 -------------------
 Temperature   298.150 Kelvin.  Pressure   1.00000 Atm.
 Atom     1 has atomic number 15 and mass  30.97376

 Molecular mass:    33.99724 amu.
 Principal axes and moments of inertia in atomic units:
                           1         2         3
     Eigenvalues --    13.49674  13.49814  15.30258
           X            1.00000  -0.00001   0.00002
           Y            0.00001   1.00000   0.00006
           Z           -0.00002  -0.00006   1.00000
 This molecule is an asymmetric top.
 Rotational symmetry number  1.
 Rotational temperatures (Kelvin)      6.41740     6.41673     5.66009
 Rotational constants (GHZ):         133.71687   133.70297   117.93705
 Zero-point vibrational energy      63244.7 (Joules/Mol)
                                   15.11584 (Kcal/Mol)
 Vibrational temperatures:   1484.54  1641.41  1643.89  3473.04  3483.97
          (Kelvin)           3486.32

 Zero-point correction=                           0.024089 (Hartree/Particle)
 Thermal correction to Energy=                    0.026996
 Thermal correction to Enthalpy=                  0.027940
 Thermal correction to Gibbs Free Energy=         0.003055
 Sum of electronic and zero-point Energies=           -343.109240
 Sum of electronic and thermal Energies=              -343.106332
 Sum of electronic and thermal Enthalpies=            -343.105388
 Sum of electronic and thermal Free Energies=         -343.130273

                     E (Thermal)             CV                S
                      KCal/Mol        Cal/Mol-Kelvin    Cal/Mol-Kelvin
 Total                   16.940              6.805             52.375
 Electronic               0.000              0.000              0.000
 Translational            0.889              2.981             36.502
 Rotational               0.889              2.981             15.685
 Vibrational             15.163              0.843              0.188

 ## DEPERTURBED TRANSITIONS MOMENTS ##

 Electric dipole : Fundamental Bands
 ------------------------------------------------------------------------

 ## AFTER VARIATIONAL CORRECTION

 Electric dipole : Fundamental Bands
 ------------------------------------------------------------------------

 Optimization completed.
    -- Stationary point found.
 Normal termination of Gaussian 16 at Tue Jun 23 13:44:35 2020.
