 Gaussian 16, Revision C.01,
 Gaussian 16:  ES64L-G16RevC.01  3-Jul-2019

 -------------------------------------------------------
 # M06/Def2TZVP Freq=(anharmonic,ReadAnharm) Opt=CalcAll
 -------------------------------------------------------

 --------------------------------------------
 Anharmonic frequencies for silane using VPT2
 --------------------------------------------
 Symbolic Z-matrix:
 Charge =  0 Multiplicity = 1

 SCF Done:  E(RM06) =  -291.876415326     A.U. after   10 cycles
 SCF Done:  E(RM06) =  -291.876533671     A.U. after    7 cycles
 Optimization completed.
    -- Stationary point found.
 Normal termination of Gaussian 16 at Tue Jun 23 15:24:06 2020.

 ------------------------------------------------------------------
 #N Geom=AllCheck Guess=TCheck SCRF=Check GenChk RM06/def2TZVP Freq
 ------------------------------------------------------------------

 Structure from the checkpoint file:  "checkpoint.chk"
 --------------------------------------------
 Anharmonic frequencies for silane using VPT2
 --------------------------------------------
 Charge =  0 Multiplicity = 1

                         Standard orientation:
 ---------------------------------------------------------------------
 Center     Atomic      Atomic             Coordinates (Angstroms)
 Number     Number       Type             X           Y           Z
 ---------------------------------------------------------------------
      1         14           0       -0.000003   -0.000002   -0.000002
      2          1           0       -0.774561   -0.308288    1.217653
      3          1           0       -0.912993    0.079901   -1.156600
      4          1           0        0.995975   -1.063933   -0.232006
      5          1           0        0.691621    1.292345    0.170977
 ---------------------------------------------------------------------

 SCF Done:  E(RM06) =  -291.876533671     A.U. after    1 cycles
 SCF Done:  E(RM06) =  -291.876527808     A.U. after    6 cycles
 SCF Done:  E(RM06) =  -291.876527636     A.U. after    6 cycles
 SCF Done:  E(RM06) =  -291.876527583     A.U. after    6 cycles
 SCF Done:  E(RM06) =  -291.876527842     A.U. after    6 cycles
 SCF Done:  E(RM06) =  -291.876527718     A.U. after    6 cycles
 SCF Done:  E(RM06) =  -291.876527679     A.U. after    6 cycles
 SCF Done:  E(RM06) =  -291.876526940     A.U. after    5 cycles
 SCF Done:  E(RM06) =  -291.876527081     A.U. after    5 cycles
 SCF Done:  E(RM06) =  -291.876527061     A.U. after    5 cycles
 SCF Done:  E(RM06) =  -291.876500922     A.U. after    7 cycles
 SCF Done:  E(RM06) =  -291.876495802     A.U. after    7 cycles
 SCF Done:  E(RM06) =  -291.876498101     A.U. after    7 cycles
 SCF Done:  E(RM06) =  -291.876498495     A.U. after    7 cycles
 SCF Done:  E(RM06) =  -291.876498750     A.U. after    7 cycles
 SCF Done:  E(RM06) =  -291.876497831     A.U. after    7 cycles
 SCF Done:  E(RM06) =  -291.876498378     A.U. after    7 cycles
 SCF Done:  E(RM06) =  -291.876498194     A.U. after    7 cycles

 Alpha  occ. eigenvalues --  -66.26165  -5.36371  -3.68288  -3.68287  -3.68285
 Alpha  occ. eigenvalues --   -0.55829  -0.36223  -0.36131  -0.36062
 Alpha virt. eigenvalues --    0.03927   0.03955   0.03989   0.06362   0.17023
 Alpha virt. eigenvalues --    0.17024   0.17024   0.19291   0.19292   0.28186
 Alpha virt. eigenvalues --    0.28765   0.28775   0.28788   0.42675   0.55550

 Mulliken charges:
               1
     1  Si   0.212548
     2  H   -0.052615
     3  H   -0.053129
     4  H   -0.053220
     5  H   -0.053584
 Sum of Mulliken charges =  -0.00000

 Dipole moment (field-independent basis, Debye):
    X=             -0.0116    Y=             -0.0096    Z=              0.0081  Tot=              0.0171
 Quadrupole moment (field-independent basis, Debye-Ang):
   XX=            -16.4153   YY=            -16.4244   ZZ=            -16.4072
   XY=             -0.0022   XZ=             -0.0057   YZ=             -0.0035

  Exact polarizability:      27.969       0.021      28.055       0.058       0.035      27.892
 Approx polarizability:      35.704       0.033      35.839       0.086       0.052      35.579

                      1                      2                      3
                      A                      A                      A
 Frequencies --    938.3039               939.0384               940.1496
 Red. masses --      1.0957                 1.0956                 1.0956
 Frc consts  --      0.5684                 0.5692                 0.5706
 IR Inten    --    140.8253               140.8314               140.7975

                      4                      5                      6
                      A                      A                      A
 Frequencies --    987.3065               988.2948              2285.9182
 Red. masses --      1.0079                 1.0079                 1.0083
 Frc consts  --      0.5788                 0.5800                 3.1044
 IR Inten    --      0.0526                 0.0753                 1.5293

                      7                      8                      9
                      A                      A                      A
 Frequencies --   2287.9443              2288.2119              2288.3490
 Red. masses --      1.0511                 1.0507                 1.0512
 Frc consts  --      3.2417                 3.2413                 3.2431
 IR Inten    --    123.4439               122.5697               123.7817

 - Thermochemistry -
 -------------------
 Temperature   298.150 Kelvin.  Pressure   1.00000 Atm.
 Atom     1 has atomic number 14 and mass  27.97693

 Molecular mass:    32.00823 amu.
 Principal axes and moments of inertia in atomic units:
                           1         2         3
     Eigenvalues --    20.89943  20.90041  20.90066
           X            1.00000  -0.00000  -0.00000
           Y            0.00000   1.00000  -0.00000
           Z            0.00000   0.00000   1.00000
 This molecule is an asymmetric top.
 Rotational symmetry number  1.
 Rotational temperatures (Kelvin)      4.14432     4.14413     4.14407
 Rotational constants (GHZ):          86.35361    86.34958    86.34851
 Zero-point vibrational energy      83400.8 (Joules/Mol)
                                   19.93326 (Kcal/Mol)
 Vibrational temperatures:   1350.01  1351.07  1352.67  1420.51  1421.94
          (Kelvin)           3288.93  3291.84  3292.23  3292.42

 Zero-point correction=                           0.031766 (Hartree/Particle)
 Thermal correction to Energy=                    0.034816
 Thermal correction to Enthalpy=                  0.035760
 Thermal correction to Gibbs Free Energy=         0.010225
 Sum of electronic and zero-point Energies=           -291.844768
 Sum of electronic and thermal Energies=              -291.841718
 Sum of electronic and thermal Enthalpies=            -291.840774
 Sum of electronic and thermal Free Energies=         -291.866309

                     E (Thermal)             CV                S
                      KCal/Mol        Cal/Mol-Kelvin    Cal/Mol-Kelvin
 Total                   21.847              8.105             53.743
 Electronic               0.000              0.000              0.000
 Translational            0.889              2.981             36.322
 Rotational               0.889              2.981             16.864
 Vibrational             20.070              2.143              0.556

 ## DEPERTURBED TRANSITIONS MOMENTS ##

 Electric dipole : Fundamental Bands
 ------------------------------------------------------------------------

 ## AFTER VARIATIONAL CORRECTION

 Electric dipole : Fundamental Bands
 ------------------------------------------------------------------------

 Optimization completed.
    -- Stationary point found.
 Normal termination of Gaussian 16 at Tue Jun 23 15:30:10 2020.
