 Gaussian 16, Revision C.01,
 Gaussian 16:  ES64L-G16RevC.01  3-Jul-2019

 -------------------------------------------------------
 # M06/Def2TZVP Freq=(anharmonic,ReadAnharm) Opt=CalcAll
 -------------------------------------------------------

 ------------------------------------------------------------
 Anharmonic frequencies for trichlorofluoromethane using VPT2
 ------------------------------------------------------------
 Symbolic Z-matrix:
 Charge =  0 Multiplicity = 1

 SCF Done:  E(RM06) =  -1518.50937906     A.U. after   14 cycles
 SCF Done:  E(RM06) =  -1518.51063075     A.U. after   13 cycles
 SCF Done:  E(RM06) =  -1518.51065765     A.U. after    8 cycles
 Optimization completed.
    -- Stationary point found.
 Normal termination of Gaussian 16 at Thu Jun 18 15:00:35 2020.

 ------------------------------------------------------------------
 #N Geom=AllCheck Guess=TCheck SCRF=Check GenChk RM06/def2TZVP Freq
 ------------------------------------------------------------------

 Structure from the checkpoint file:  "/jobfs/7277166.gadi-pbs/Gau-96783.chk"
 ------------------------------------------------------------
 Anharmonic frequencies for trichlorofluoromethane using VPT2
 ------------------------------------------------------------
 Charge =  0 Multiplicity = 1

                         Standard orientation:
 ---------------------------------------------------------------------
 Center     Atomic      Atomic             Coordinates (Angstroms)
 Number     Number       Type             X           Y           Z
 ---------------------------------------------------------------------
      1          6           0        0.000035    0.000076    0.259525
      2         17           0        0.518316   -1.592051   -0.309201
      3          9           0       -0.000070    0.000019    1.579242
      4         17           0       -1.637951    0.347159   -0.309250
      5         17           0        1.119660    1.244855   -0.309216
 ---------------------------------------------------------------------

 SCF Done:  E(RM06) =  -1518.51065765     A.U. after    1 cycles
 SCF Done:  E(RM06) =  -1518.51065722     A.U. after    6 cycles
 SCF Done:  E(RM06) =  -1518.51065729     A.U. after    6 cycles
 SCF Done:  E(RM06) =  -1518.51065714     A.U. after    6 cycles
 SCF Done:  E(RM06) =  -1518.51065736     A.U. after    6 cycles
 SCF Done:  E(RM06) =  -1518.51065725     A.U. after    7 cycles
 SCF Done:  E(RM06) =  -1518.51065641     A.U. after    7 cycles
 SCF Done:  E(RM06) =  -1518.51065662     A.U. after    7 cycles
 SCF Done:  E(RM06) =  -1518.51065648     A.U. after    6 cycles
 SCF Done:  E(RM06) =  -1518.51065579     A.U. after    7 cycles
 SCF Done:  E(RM06) =  -1518.51065555     A.U. after    7 cycles
 SCF Done:  E(RM06) =  -1518.51065347     A.U. after    8 cycles
 SCF Done:  E(RM06) =  -1518.51065283     A.U. after    8 cycles
 SCF Done:  E(RM06) =  -1518.51065305     A.U. after    8 cycles
 SCF Done:  E(RM06) =  -1518.51065324     A.U. after    8 cycles
 SCF Done:  E(RM06) =  -1518.51064863     A.U. after    8 cycles
 SCF Done:  E(RM06) =  -1518.51064881     A.U. after    8 cycles

 Alpha  occ. eigenvalues -- -101.74738-101.74738-101.74734 -24.84157 -10.50865
 Alpha  occ. eigenvalues --   -9.61877  -9.61876  -9.61872  -7.33031  -7.33030
 Alpha  occ. eigenvalues --   -7.33027  -7.32010  -7.32010  -7.32006  -7.32003
 Alpha  occ. eigenvalues --   -7.32003  -7.31999  -1.33819  -0.96394  -0.88084
 Alpha  occ. eigenvalues --   -0.88081  -0.69524  -0.57990  -0.57082  -0.57082
 Alpha  occ. eigenvalues --   -0.44977  -0.44976  -0.38801  -0.37561  -0.37560
 Alpha  occ. eigenvalues --   -0.34607  -0.34606  -0.33186
 Alpha virt. eigenvalues --   -0.04613   0.00769   0.00772   0.08944   0.12803
 Alpha virt. eigenvalues --    0.18951   0.18954   0.25191   0.26992   0.26993
 Alpha virt. eigenvalues --    0.31763   0.31765   0.33515   0.33517   0.33847

 Mulliken charges:
               1
     1  C    0.325276
     2  Cl  -0.057479
     3  F   -0.153013
     4  Cl  -0.057415
     5  Cl  -0.057369
 Sum of Mulliken charges =  -0.00000

 Dipole moment (field-independent basis, Debye):
    X=              0.0007    Y=              0.0005    Z=             -0.2864  Tot=              0.2864
 Quadrupole moment (field-independent basis, Debye-Ang):
   XX=            -46.3516   YY=            -46.3519   ZZ=            -48.2738
   XY=              0.0007   XZ=             -0.0005   YZ=             -0.0004

  Exact polarizability:      54.663      -0.002      54.656      -0.005      -0.004      38.493
 Approx polarizability:      81.846      -0.000      81.840       0.002       0.000      61.973

                      1                      2                      3
                      A                      A                      A
 Frequencies --    243.0091               243.7399               348.9425
 Red. masses --     30.0090                30.0070                25.4735
 Frc consts  --      1.0441                 1.0503                 1.8275
 IR Inten    --      0.0312                 0.0328                 0.1524

                      4                      5                      6
                      A                      A                      A
 Frequencies --    403.2784               403.4576               541.1949
 Red. masses --     25.2936                25.2931                22.4368
 Frc consts  --      2.4237                 2.4258                 3.8719
 IR Inten    --      0.4042                 0.4061                 3.1192

                      7                      8                      9
                      A                      A                      A
 Frequencies --    816.2479               816.7558              1149.6204
 Red. masses --     12.8553                12.8547                13.7842
 Frc consts  --      5.0463                 5.0524                10.7335
 IR Inten    --    297.1194               296.8119               212.9397

 - Thermochemistry -
 -------------------
 Temperature   298.150 Kelvin.  Pressure   1.00000 Atm.
 Atom     1 has atomic number  6 and mass  12.00000

 Molecular mass:   135.90496 amu.
 Principal axes and moments of inertia in atomic units:
                           1         2         3
     Eigenvalues --   732.98012 733.025411050.20505
           X            1.00000   0.00000   0.00000
           Y           -0.00000   1.00000  -0.00000
           Z           -0.00000   0.00000   1.00000
 This molecule is an asymmetric top.
 Rotational symmetry number  1.
 Warning -- assumption of classical behavior for rotation
           may cause significant error
 Rotational temperatures (Kelvin)      0.11817     0.11816     0.08247
 Rotational constants (GHZ):           2.46220     2.46204     1.71847
 Zero-point vibrational energy      29704.8 (Joules/Mol)
                                    7.09961 (Kcal/Mol)
 Warning -- explicit consideration of   6 degrees of freedom as
           vibrations may cause significant error
 Vibrational temperatures:    349.64   350.69   502.05   580.23   580.49
          (Kelvin)            778.66  1174.40  1175.13  1654.05

 Zero-point correction=                           0.011314 (Hartree/Particle)
 Thermal correction to Energy=                    0.016476
 Thermal correction to Enthalpy=                  0.017420
 Thermal correction to Gibbs Free Energy=        -0.018731
 Sum of electronic and zero-point Energies=          -1518.499344
 Sum of electronic and thermal Energies=             -1518.494181
 Sum of electronic and thermal Enthalpies=           -1518.493237
 Sum of electronic and thermal Free Energies=        -1518.529389

                     E (Thermal)             CV                S
                      KCal/Mol        Cal/Mol-Kelvin    Cal/Mol-Kelvin
 Total                   10.339             16.659             76.087
 Electronic               0.000              0.000              0.000
 Translational            0.889              2.981             40.632
 Rotational               0.889              2.981             27.825
 Vibrational              8.562             10.698              7.630
 Vibration     1          0.659              1.774              1.781
 Vibration     2          0.659              1.773              1.775
 Vibration     3          0.726              1.577              1.171
 Vibration     4          0.769              1.463              0.951
 Vibration     5          0.769              1.463              0.950
 Vibration     6          0.896              1.159              0.563

 ## DEPERTURBED TRANSITIONS MOMENTS ##

 Electric dipole : Fundamental Bands
 ------------------------------------------------------------------------

 ## AFTER VARIATIONAL CORRECTION

 Electric dipole : Fundamental Bands
 ------------------------------------------------------------------------

 Optimization completed.
    -- Stationary point found.
 Normal termination of Gaussian 16 at Thu Jun 18 18:24:49 2020.
