 Gaussian 16, Revision C.01,
 Gaussian 16:  ES64L-G16RevC.01  3-Jul-2019

 -------------------------------------------------------
 # M06/Def2TZVP Freq=(anharmonic,ReadAnharm) Opt=CalcAll
 -------------------------------------------------------

 -----------------------------------------
 Anharmonic frequencies for H2O using VPT2
 -----------------------------------------
 Symbolic Z-matrix:
 Charge =  0 Multiplicity = 1

 SCF Done:  E(RM06) =  -76.4218492425     A.U. after   10 cycles
 SCF Done:  E(RM06) =  -76.4220667900     A.U. after    7 cycles
 SCF Done:  E(RM06) =  -76.4220670513     A.U. after    6 cycles
 Optimization completed.
    -- Stationary point found.
 Normal termination of Gaussian 16 at Thu Jun 18 14:13:30 2020.

 ------------------------------------------------------------------
 #N Geom=AllCheck Guess=TCheck SCRF=Check GenChk RM06/def2TZVP Freq
 ------------------------------------------------------------------

 Structure from the checkpoint file:  "/jobfs/7271862.gadi-pbs/Gau-55280.chk"
 -----------------------------------------
 Anharmonic frequencies for H2O using VPT2
 -----------------------------------------
 Charge =  0 Multiplicity = 1

                         Standard orientation:
 ---------------------------------------------------------------------
 Center     Atomic      Atomic             Coordinates (Angstroms)
 Number     Number       Type             X           Y           Z
 ---------------------------------------------------------------------
      1          8           0        0.000000    0.116477    0.000000
      2          1           0        0.761244   -0.465908   -0.000000
      3          1           0       -0.761244   -0.465908    0.000000
 ---------------------------------------------------------------------

 SCF Done:  E(RM06) =  -76.4220670513     A.U. after    1 cycles
 SCF Done:  E(RM06) =  -76.4220498363     A.U. after    7 cycles
 SCF Done:  E(RM06) =  -76.4220497259     A.U. after    7 cycles
 SCF Done:  E(RM06) =  -76.4219682109     A.U. after    7 cycles
 SCF Done:  E(RM06) =  -76.4219651417     A.U. after    7 cycles
 SCF Done:  E(RM06) =  -76.4219601435     A.U. after    7 cycles
 SCF Done:  E(RM06) =  -76.4219601438     A.U. after    7 cycles

 Alpha  occ. eigenvalues --  -19.20222  -1.03542  -0.54369  -0.40112  -0.32707
 Alpha virt. eigenvalues --    0.02173   0.07824   0.35793   0.40278   0.44130
 Alpha virt. eigenvalues --    0.44236   0.55884   0.57487   1.18028   1.20136
 Alpha virt. eigenvalues --    1.31533   1.51048   1.63575   1.74359   1.96214

 Mulliken charges:
               1
     1  O   -0.652204
     2  H    0.324617
     3  H    0.327587
 Sum of Mulliken charges =  -0.00000

 Dipole moment (field-independent basis, Debye):
    X=             -0.0118    Y=             -2.0730    Z=              0.0000  Tot=              2.0730
 Quadrupole moment (field-independent basis, Debye-Ang):
   XX=             -4.2429   YY=             -6.2245   ZZ=             -7.4788
   XY=              0.0202   XZ=              0.0000   YZ=             -0.0000

  Exact polarizability:       8.085       0.084       6.531       0.000       0.000       5.215
 Approx polarizability:       9.607       0.120       7.598       0.000       0.000       5.465

                      1                      2                      3
                     A'                     A'                     A'
 Frequencies --   1598.7584              3853.9142              3977.3260
 Red. masses --      1.0833                 1.0446                 1.0825
 Frc consts  --      1.6314                 9.1414                10.0894
 IR Inten    --     81.7506                 7.3699                59.3376

 - Thermochemistry -
 -------------------
 Temperature   298.150 Kelvin.  Pressure   1.00000 Atm.
 Atom     1 has atomic number  8 and mass  15.99491

 Molecular mass:    18.01056 amu.
 Principal axes and moments of inertia in atomic units:
                           1         2         3
     Eigenvalues --     2.16815   4.17119   6.33934
           X            1.00000   0.00000   0.00000
           Y           -0.00000   1.00000   0.00000
           Z           -0.00000  -0.00000   1.00000
 This molecule is an asymmetric top.
 Rotational symmetry number  1.
 Rotational temperatures (Kelvin)     39.94837    20.76479    13.66293
 Rotational constants (GHZ):         832.38884   432.66809   284.68923
 Zero-point vibrational energy      56403.9 (Joules/Mol)
                                   13.48086 (Kcal/Mol)
 Vibrational temperatures:   2300.26  5544.92  5722.48
          (Kelvin)

 Zero-point correction=                           0.021483 (Hartree/Particle)
 Thermal correction to Energy=                    0.024319
 Thermal correction to Enthalpy=                  0.025263
 Thermal correction to Gibbs Free Energy=         0.003197
 Sum of electronic and zero-point Energies=            -76.400584
 Sum of electronic and thermal Energies=               -76.397748
 Sum of electronic and thermal Enthalpies=             -76.396804
 Sum of electronic and thermal Free Energies=          -76.418870

                     E (Thermal)             CV                S
                      KCal/Mol        Cal/Mol-Kelvin    Cal/Mol-Kelvin
 Total                   15.260              6.014             46.442
 Electronic               0.000              0.000              0.000
 Translational            0.889              2.981             34.608
 Rotational               0.889              2.981             11.826
 Vibrational             13.483              0.053              0.008

 Optimization completed.
    -- Stationary point found.
 Normal termination of Gaussian 16 at Thu Jun 18 14:16:04 2020.
